nohup: ignoring input
Starting!
Tue Dec 17 18:52:14 GMT 2013
 argument  1 = aspirin.nw
                                         
                                         


              Northwest Computational Chemistry Package (NWChem) 6.3
              ------------------------------------------------------


                    Environmental Molecular Sciences Laboratory
                       Pacific Northwest National Laboratory
                                Richland, WA 99352

                              Copyright (c) 1994-2012
                       Pacific Northwest National Laboratory
                            Battelle Memorial Institute

             NWChem is an open-source computational chemistry package
                        distributed under the terms of the
                      Educational Community License (ECL) 2.0
             A copy of the license is included with this distribution
                              in the LICENSE.TXT file

                                  ACKNOWLEDGMENT
                                  --------------

            This software and its documentation were developed at the
            EMSL at Pacific Northwest National Laboratory, a multiprogram
            national laboratory, operated for the U.S. Department of Energy
            by Battelle under Contract Number DE-AC05-76RL01830. Support
            for this work was provided by the Department of Energy Office
            of Biological and Environmental Research, Office of Basic
            Energy Sciences, and the Office of Advanced Scientific Computing.


           Job information
           ---------------

    hostname        = orac.nextmovesoftware.com
    program         = ../../bin/LINUX64/nwchem
    date            = Tue Dec 17 18:52:14 2013

    compiled        = Mon_Dec_16_21:09:47_2013
    source          = /home/noel/Tools/Quantum/nwchem-6.3
    nwchem branch   = 6.3
    nwchem revision = 24652
    ga revision     = 10379
    input           = aspirin.nw
    prefix          = molecule.
    data base       = ./molecule.db
    status          = startup
    nproc           =        1
    time left       =     -1s



           Memory information
           ------------------

    heap     =   13107201 doubles =    100.0 Mbytes
    stack    =   13107201 doubles =    100.0 Mbytes
    global   =   26214400 doubles =    200.0 Mbytes (distinct from heap & stack)
    total    =   52428802 doubles =    400.0 Mbytes
    verify   = yes
    hardfail = no 


           Directory information
           ---------------------

  0 permanent = .
  0 scratch   = .




                                NWChem Input Module
                                -------------------


                                      aspirin
                                      -------

 Scaling coordinates for geometry "geometry" by  1.889725989
 (inverse scale =  0.529177249)

 C1  symmetry detected

          ------
          auto-z
          ------


                             Geometry "geometry" -> ""
                             -------------------------

 Output coordinates in angstroms (scale by  1.889725989 to convert to a.u.)

  No.       Tag          Charge          X              Y              Z
 ---- ---------------- ---------- -------------- -------------- --------------
    1 C                    6.0000    -0.34403900    -2.27310618     0.26462859
    2 C                    6.0000     1.91336910    -0.79524910    -0.44000201
    3 C                    6.0000     0.91635871    -2.87856280     0.25609651
    4 C                    6.0000     2.04321909    -2.14031750    -0.09936595
    5 C                    6.0000     0.52922494     3.42867473    -0.19480781
    6 C                    6.0000    -0.49484938    -0.91895040    -0.07869569
    7 C                    6.0000     0.65205858    -0.18697342    -0.41409530
    8 O                    8.0000    -2.86935828    -1.00811368     0.27059724
    9 O                    8.0000     0.75615091     1.70622218     1.47812661
   10 O                    8.0000    -1.99692488     0.89375558    -0.47165751
   11 C                    6.0000    -1.87892965    -0.38109071    -0.06337777
   12 C                    6.0000     0.64246342     2.01785472     0.29987547
   13 O                    8.0000     0.60584838     1.15733227    -0.79111839
   14 H                    1.0000    -2.95963675     1.06408861    -0.39551839
   15 H                    1.0000    -1.21358169    -2.86856406     0.54020923
   16 H                    1.0000     2.79279732    -0.22060266    -0.71730755
   17 H                    1.0000     1.01509436    -3.92729287     0.52625027
   18 H                    1.0000     3.02250511    -2.61230183    -0.10857311
   19 H                    1.0000    -0.41157687     3.55865400    -0.73558965
   20 H                    1.0000     0.53552993     4.11306795     0.65933145
   21 H                    1.0000     1.37988476     3.66570406    -0.83792200

      Atomic Mass 
      ----------- 

      C                 12.000000
      O                 15.994910
      H                  1.007825


 Effective nuclear repulsion energy (a.u.)     782.6612217760

            Nuclear Dipole moment (a.u.) 
            ----------------------------
        X                 Y               Z
 ---------------- ---------------- ----------------
     0.0000000000    -0.0000000000    -0.0000000000



                                Z-matrix (autoz)
                                -------- 

 Units are Angstrom for bonds and degrees for angles

      Type          Name      I     J     K     L     M      Value
      ----------- --------  ----- ----- ----- ----- ----- ----------
    1 Stretch                  1     3                       1.39830
    2 Stretch                  1     6                       1.40512
    3 Stretch                  1    15                       1.08932
    4 Stretch                  2     4                       1.39359
    5 Stretch                  2     7                       1.40056
    6 Stretch                  2    16                       1.08651
    7 Stretch                  3     4                       1.39326
    8 Stretch                  3    17                       1.08746
    9 Stretch                  4    18                       1.08713
   10 Stretch                  5    12                       1.49932
   11 Stretch                  5    19                       1.09291
   12 Stretch                  5    20                       1.09453
   13 Stretch                  5    21                       1.09243
   14 Stretch                  6     7                       1.40131
   15 Stretch                  6    11                       1.48499
   16 Stretch                  7    13                       1.39694
   17 Stretch                  8    11                       1.21887
   18 Stretch                  9    12                       1.22406
   19 Stretch                 10    11                       1.34382
   20 Stretch                 10    14                       0.98062
   21 Stretch                 12    13                       1.39000
   22 Bend                     1     3     4               120.07641
   23 Bend                     1     3    17               119.86100
   24 Bend                     1     6     7               118.29708
   25 Bend                     1     6    11               116.52421
   26 Bend                     2     4     3               119.89551
   27 Bend                     2     4    18               120.05964
   28 Bend                     2     7     6               120.97359
   29 Bend                     2     7    13               116.27901
   30 Bend                     3     1     6               120.83337
   31 Bend                     3     1    15               118.97138
   32 Bend                     3     4    18               120.04468
   33 Bend                     4     2     7               119.90586
   34 Bend                     4     2    16               119.83089
   35 Bend                     4     3    17               120.06254
   36 Bend                     5    12     9               124.34470
   37 Bend                     5    12    13               108.75879
   38 Bend                     6     1    15               120.19508
   39 Bend                     6     7    13               122.69678
   40 Bend                     6    11     8               125.01994
   41 Bend                     6    11    10               114.98063
   42 Bend                     7     2    16               120.26155
   43 Bend                     7     6    11               125.17733
   44 Bend                     7    13    12               112.52262
   45 Bend                     8    11    10               119.99502
   46 Bend                     9    12    13               126.89496
   47 Bend                    11    10    14               103.14379
   48 Bend                    12     5    19               109.88800
   49 Bend                    12     5    20               109.29726
   50 Bend                    12     5    21               109.85201
   51 Bend                    19     5    20               108.46529
   52 Bend                    19     5    21               110.68393
   53 Bend                    20     5    21               108.61756
   54 Torsion                  1     3     4     2           0.32538
   55 Torsion                  1     3     4    18        -179.82507
   56 Torsion                  1     6     7     2           1.58226
   57 Torsion                  1     6     7    13         178.89757
   58 Torsion                  1     6    11     8           2.95360
   59 Torsion                  1     6    11    10        -176.27860
   60 Torsion                  2     4     3    17        -179.75449
   61 Torsion                  2     7     6    11        -177.97329
   62 Torsion                  2     7    13    12         -96.24341
   63 Torsion                  3     1     6     7          -0.75741
   64 Torsion                  3     1     6    11         178.83657
   65 Torsion                  3     4     2     7           0.48892
   66 Torsion                  3     4     2    16        -179.98290
   67 Torsion                  4     2     7     6          -1.46663
   68 Torsion                  4     2     7    13        -178.94705
   69 Torsion                  4     3     1     6          -0.18514
   70 Torsion                  4     3     1    15         179.67085
   71 Torsion                  5    12    13     7        -177.58841
   72 Torsion                  6     1     3    17         179.89457
   73 Torsion                  6     7     2    16         179.00725
   74 Torsion                  6     7    13    12          86.32370
   75 Torsion                  6    11    10    14         179.86293
   76 Torsion                  7     2     4    18        -179.36060
   77 Torsion                  7     6     1    15         179.38837
   78 Torsion                  7     6    11     8        -177.48378
   79 Torsion                  7     6    11    10           3.28402
   80 Torsion                  7    13    12     9           2.85199
   81 Torsion                  8    11    10    14           0.58895
   82 Torsion                  9    12     5    19        -120.54640
   83 Torsion                  9    12     5    20          -1.62988
   84 Torsion                  9    12     5    21         117.45096
   85 Torsion                 11     6     1    15          -1.01765
   86 Torsion                 11     6     7    13          -0.65797
   87 Torsion                 13     7     2    16           1.52682
   88 Torsion                 13    12     5    19          59.88018
   89 Torsion                 13    12     5    20         178.79669
   90 Torsion                 13    12     5    21         -62.12247
   91 Torsion                 15     1     3    17          -0.24944
   92 Torsion                 16     2     4    18           0.16757
   93 Torsion                 17     3     4    18           0.09506


            XYZ format geometry
            -------------------
    21
 geometry
 C                    -0.34403900    -2.27310618     0.26462859
 C                     1.91336910    -0.79524910    -0.44000201
 C                     0.91635871    -2.87856280     0.25609651
 C                     2.04321909    -2.14031750    -0.09936595
 C                     0.52922494     3.42867473    -0.19480781
 C                    -0.49484938    -0.91895040    -0.07869569
 C                     0.65205858    -0.18697342    -0.41409530
 O                    -2.86935828    -1.00811368     0.27059724
 O                     0.75615091     1.70622218     1.47812661
 O                    -1.99692488     0.89375558    -0.47165751
 C                    -1.87892965    -0.38109071    -0.06337777
 C                     0.64246342     2.01785472     0.29987547
 O                     0.60584838     1.15733227    -0.79111839
 H                    -2.95963675     1.06408861    -0.39551839
 H                    -1.21358169    -2.86856406     0.54020923
 H                     2.79279732    -0.22060266    -0.71730755
 H                     1.01509436    -3.92729287     0.52625027
 H                     3.02250511    -2.61230183    -0.10857311
 H                    -0.41157687     3.55865400    -0.73558965
 H                     0.53552993     4.11306795     0.65933145
 H                     1.37988476     3.66570406    -0.83792200

 ==============================================================================
                                internuclear distances
 ------------------------------------------------------------------------------
       center one      |      center two      | atomic units |  angstroms
 ------------------------------------------------------------------------------
    3 C                |   1 C                |     2.64241  |     1.39830
    4 C                |   2 C                |     2.63351  |     1.39359
    4 C                |   3 C                |     2.63288  |     1.39326
    6 C                |   1 C                |     2.65529  |     1.40512
    7 C                |   2 C                |     2.64668  |     1.40056
    7 C                |   6 C                |     2.64810  |     1.40131
   11 C                |   6 C                |     2.80623  |     1.48499
   11 C                |   8 O                |     2.30333  |     1.21887
   11 C                |  10 O                |     2.53945  |     1.34382
   12 C                |   5 C                |     2.83330  |     1.49932
   12 C                |   9 O                |     2.31313  |     1.22406
   13 O                |   7 C                |     2.63983  |     1.39694
   13 O                |  12 C                |     2.62672  |     1.39000
   14 H                |  10 O                |     1.85311  |     0.98062
   15 H                |   1 C                |     2.05852  |     1.08932
   16 H                |   2 C                |     2.05321  |     1.08651
   17 H                |   3 C                |     2.05500  |     1.08746
   18 H                |   4 C                |     2.05438  |     1.08713
   19 H                |   5 C                |     2.06530  |     1.09291
   20 H                |   5 C                |     2.06835  |     1.09453
   21 H                |   5 C                |     2.06439  |     1.09243
 ------------------------------------------------------------------------------
                         number of included internuclear distances:         21
 ==============================================================================



 ==============================================================================
                                 internuclear angles
 ------------------------------------------------------------------------------
        center 1       |       center 2       |       center 3       |  degrees
 ------------------------------------------------------------------------------
    3 C                |   1 C                |   6 C                |   120.83
    3 C                |   1 C                |  15 H                |   118.97
    6 C                |   1 C                |  15 H                |   120.20
    4 C                |   2 C                |   7 C                |   119.91
    4 C                |   2 C                |  16 H                |   119.83
    7 C                |   2 C                |  16 H                |   120.26
    1 C                |   3 C                |   4 C                |   120.08
    1 C                |   3 C                |  17 H                |   119.86
    4 C                |   3 C                |  17 H                |   120.06
    2 C                |   4 C                |   3 C                |   119.90
    2 C                |   4 C                |  18 H                |   120.06
    3 C                |   4 C                |  18 H                |   120.04
   12 C                |   5 C                |  19 H                |   109.89
   12 C                |   5 C                |  20 H                |   109.30
   12 C                |   5 C                |  21 H                |   109.85
   19 H                |   5 C                |  20 H                |   108.47
   19 H                |   5 C                |  21 H                |   110.68
   20 H                |   5 C                |  21 H                |   108.62
    1 C                |   6 C                |   7 C                |   118.30
    1 C                |   6 C                |  11 C                |   116.52
    7 C                |   6 C                |  11 C                |   125.18
    2 C                |   7 C                |   6 C                |   120.97
    2 C                |   7 C                |  13 O                |   116.28
    6 C                |   7 C                |  13 O                |   122.70
   11 C                |  10 O                |  14 H                |   103.14
    6 C                |  11 C                |   8 O                |   125.02
    6 C                |  11 C                |  10 O                |   114.98
    8 O                |  11 C                |  10 O                |   120.00
    5 C                |  12 C                |   9 O                |   124.34
    5 C                |  12 C                |  13 O                |   108.76
    9 O                |  12 C                |  13 O                |   126.89
    7 C                |  13 O                |  12 C                |   112.52
 ------------------------------------------------------------------------------
                            number of included internuclear angles:         32
 ==============================================================================



  library name resolved from: .nwchemrc
  library file name is: </home/noel/Tools/Quantum/nwchem-6.3/src/basis/libraries/>
  


 Summary of "ao basis" -> "" (cartesian)
 ------------------------------------------------------------------------------
       Tag                 Description            Shells   Functions and Types
 ---------------- ------------------------------  ------  ---------------------
 *                           6-31G                    on all atoms 




                           NWChem Geometry Optimization
                           ----------------------------




                                      aspirin


 maximum gradient threshold         (gmax) =   0.000450
 rms gradient threshold             (grms) =   0.000300
 maximum cartesian step threshold   (xmax) =   0.001800
 rms cartesian step threshold       (xrms) =   0.001200
 fixed trust radius                (trust) =   0.300000
 maximum step size to saddle      (sadstp) =   0.100000
 energy precision                  (eprec) =   1.0D-07
 maximum number of steps          (nptopt) = ****
 initial hessian option           (inhess) =    0
 line search option               (linopt) =    1
 hessian update option            (modupd) =    1
 saddle point option              (modsad) =    0
 initial eigen-mode to follow     (moddir) =    0
 initial variable to follow       (vardir) =    0
 follow first negative mode     (firstneg) =    T
 apply conjugacy                    (opcg) =    F
 source of zmatrix                         =   autoz   


          -------------------
          Energy Minimization
          -------------------


 Names of Z-matrix variables 
    1              2              3              4              5         
    6              7              8              9             10         
   11             12             13             14             15         
   16             17             18             19             20         
   21             22             23             24             25         
   26             27             28             29             30         
   31             32             33             34             35         
   36             37             38             39             40         
   41             42             43             44             45         
   46             47             48             49             50         
   51             52             53             54             55         
   56             57             58             59             60         
   61             62             63             64             65         
   66             67             68             69             70         
   71             72             73             74             75         
   76             77             78             79             80         
   81             82             83             84             85         
   86             87             88             89             90         
   91             92             93         

 Variables with the same non-blank name are constrained to be equal


 Using diagonal initial Hessian 
 Scaling for Hessian diagonals: bonds = 1.00  angles = 0.25  torsions = 0.10

          --------
          Step   0
          --------


                         Geometry "geometry" -> "geometry"
                         ---------------------------------

 Output coordinates in angstroms (scale by  1.889725989 to convert to a.u.)

  No.       Tag          Charge          X              Y              Z
 ---- ---------------- ---------- -------------- -------------- --------------
    1 C                    6.0000    -0.34403900    -2.27310618     0.26462859
    2 C                    6.0000     1.91336910    -0.79524910    -0.44000201
    3 C                    6.0000     0.91635871    -2.87856280     0.25609651
    4 C                    6.0000     2.04321909    -2.14031750    -0.09936595
    5 C                    6.0000     0.52922494     3.42867473    -0.19480781
    6 C                    6.0000    -0.49484938    -0.91895040    -0.07869569
    7 C                    6.0000     0.65205858    -0.18697342    -0.41409530
    8 O                    8.0000    -2.86935828    -1.00811368     0.27059724
    9 O                    8.0000     0.75615091     1.70622218     1.47812661
   10 O                    8.0000    -1.99692488     0.89375558    -0.47165751
   11 C                    6.0000    -1.87892965    -0.38109071    -0.06337777
   12 C                    6.0000     0.64246342     2.01785472     0.29987547
   13 O                    8.0000     0.60584838     1.15733227    -0.79111839
   14 H                    1.0000    -2.95963675     1.06408861    -0.39551839
   15 H                    1.0000    -1.21358169    -2.86856406     0.54020923
   16 H                    1.0000     2.79279732    -0.22060266    -0.71730755
   17 H                    1.0000     1.01509436    -3.92729287     0.52625027
   18 H                    1.0000     3.02250511    -2.61230183    -0.10857311
   19 H                    1.0000    -0.41157687     3.55865400    -0.73558965
   20 H                    1.0000     0.53552993     4.11306795     0.65933145
   21 H                    1.0000     1.37988476     3.66570406    -0.83792200

      Atomic Mass 
      ----------- 

      C                 12.000000
      O                 15.994910
      H                  1.007825


 Effective nuclear repulsion energy (a.u.)     782.6612217760

            Nuclear Dipole moment (a.u.) 
            ----------------------------
        X                 Y               Z
 ---------------- ---------------- ----------------
     0.0000000000    -0.0000000000    -0.0000000000

                      Basis "ao basis" -> "ao basis" (cartesian)
                      -----
  C (Carbon)
  ----------
            Exponent  Coefficients 
       -------------- ---------------------------------------------------------
  1 S  3.04752490E+03  0.001835
  1 S  4.57369510E+02  0.014037
  1 S  1.03948690E+02  0.068843
  1 S  2.92101550E+01  0.232184
  1 S  9.28666300E+00  0.467941
  1 S  3.16392700E+00  0.362312

  2 S  7.86827240E+00 -0.119332
  2 S  1.88128850E+00 -0.160854
  2 S  5.44249300E-01  1.143456

  3 P  7.86827240E+00  0.068999
  3 P  1.88128850E+00  0.316424
  3 P  5.44249300E-01  0.744308

  4 S  1.68714400E-01  1.000000

  5 P  1.68714400E-01  1.000000

  O (Oxygen)
  ----------
            Exponent  Coefficients 
       -------------- ---------------------------------------------------------
  1 S  5.48467170E+03  0.001831
  1 S  8.25234950E+02  0.013950
  1 S  1.88046960E+02  0.068445
  1 S  5.29645000E+01  0.232714
  1 S  1.68975700E+01  0.470193
  1 S  5.79963530E+00  0.358521

  2 S  1.55396160E+01 -0.110778
  2 S  3.59993360E+00 -0.148026
  2 S  1.01376180E+00  1.130767

  3 P  1.55396160E+01  0.070874
  3 P  3.59993360E+00  0.339753
  3 P  1.01376180E+00  0.727159

  4 S  2.70005800E-01  1.000000

  5 P  2.70005800E-01  1.000000

  H (Hydrogen)
  ------------
            Exponent  Coefficients 
       -------------- ---------------------------------------------------------
  1 S  1.87311370E+01  0.033495
  1 S  2.82539370E+00  0.234727
  1 S  6.40121700E-01  0.813757

  2 S  1.61277800E-01  1.000000



 Summary of "ao basis" -> "ao basis" (cartesian)
 ------------------------------------------------------------------------------
       Tag                 Description            Shells   Functions and Types
 ---------------- ------------------------------  ------  ---------------------
 C                           6-31G                   5        9   3s2p
 O                           6-31G                   5        9   3s2p
 H                           6-31G                   2        2   2s


                                 NWChem SCF Module
                                 -----------------


                                      aspirin



  ao basis        = "ao basis"
  functions       =   133
  atoms           =    21
  closed shells   =    47
  open shells     =     0
  charge          =   0.00
  wavefunction    = RHF 
  input vectors   = atomic
  output vectors  = ./molecule.movecs
  use symmetry    = F
  symmetry adapt  = F


 Summary of "ao basis" -> "ao basis" (cartesian)
 ------------------------------------------------------------------------------
       Tag                 Description            Shells   Functions and Types
 ---------------- ------------------------------  ------  ---------------------
 C                           6-31G                   5        9   3s2p
 O                           6-31G                   5        9   3s2p
 H                           6-31G                   2        2   2s



 Forming initial guess at       0.1s


      Superposition of Atomic Density Guess
      -------------------------------------

 Sum of atomic energies:        -641.94555658

      Non-variational initial energy
      ------------------------------

 Total energy =    -649.422666
 1-e energy   =   -2429.841184
 2-e energy   =     997.757296
 HOMO         =      -0.261001
 LUMO         =      -0.026177


 Starting SCF solution at       1.8s



 ----------------------------------------------
         Quadratically convergent ROHF

 Convergence threshold     :          1.000E-04
 Maximum no. of iterations :           30
 Final Fock-matrix accuracy:          1.000E-07
 ----------------------------------------------


 Integral file          = ./molecule.aoints.0
 Record size in doubles =    65536    No. of integs per rec  =    43688
 Max. records in memory =        0    Max. records in file   = ********
 No. of bits per label  =        8    No. of bits per value  =       64


 #quartets = 2.994D+06 #integrals = 2.239D+07 #direct =  0.0% #cached =100.0%


              iter       energy          gnorm     gmax       time
             ----- ------------------- --------- --------- --------
                 1     -644.3658386142  2.06D+00  3.07D-01      7.5
                 2     -644.6212777197  6.42D-01  6.66D-02      8.1
                 3     -644.6605866273  6.01D-02  1.05D-02      9.0
                 4     -644.6612047661  1.85D-03  3.46D-04     10.4
                 5     -644.6612051859  7.10D-06  2.27D-06     12.2


       Final RHF  results 
       ------------------ 

         Total SCF energy =   -644.661205185867
      One-electron energy =  -2434.035975932341
      Two-electron energy =   1006.713548970519
 Nuclear repulsion energy =    782.661221775955

        Time for solution =     10.4s


             Final eigenvalues
             -----------------

              1      
    1  -20.6346
    2  -20.6304
    3  -20.5809
    4  -20.5743
    5  -11.4243
    6  -11.4205
    7  -11.3425
    8  -11.2831
    9  -11.2734
   10  -11.2729
   11  -11.2643
   12  -11.2602
   13  -11.2486
   14   -1.5035
   15   -1.4878
   16   -1.3943
   17   -1.3823
   18   -1.1848
   19   -1.0702
   20   -1.0572
   21   -1.0151
   22   -0.9176
   23   -0.8691
   24   -0.8275
   25   -0.7959
   26   -0.7307
   27   -0.7197
   28   -0.7014
   29   -0.6947
   30   -0.6759
   31   -0.6657
   32   -0.6488
   33   -0.6330
   34   -0.6236
   35   -0.5967
   36   -0.5859
   37   -0.5679
   38   -0.5619
   39   -0.5325
   40   -0.5235
   41   -0.5209
   42   -0.4855
   43   -0.4762
   44   -0.4668
   45   -0.4575
   46   -0.3664
   47   -0.3539
   48    0.0723
   49    0.1220
   50    0.1560
   51    0.2128
   52    0.2165
   53    0.2282
   54    0.2508
   55    0.2797
   56    0.2900
   57    0.3079

                       ROHF Final Molecular Orbital Analysis
                       -------------------------------------

 Vector   15  Occ=2.000000D+00  E=-1.487763D+00
              MO Center=  3.9D-01,  1.2D+00, -6.3D-02, r^2= 2.1D+00
   Bfn.  Coefficient  Atom+Function         Bfn.  Coefficient  Atom+Function  
  ----- ------------  ---------------      ----- ------------  ---------------
   114      0.410755  13 O  s               110      0.332908  13 O  s         
    78      0.213065   9 O  s               101      0.211082  12 C  s         
    74      0.207707   9 O  s               109     -0.157472  13 O  s         

 Vector   16  Occ=2.000000D+00  E=-1.394259D+00
              MO Center=  6.4D-01,  1.5D+00,  6.1D-01, r^2= 1.7D+00
   Bfn.  Coefficient  Atom+Function         Bfn.  Coefficient  Atom+Function  
  ----- ------------  ---------------      ----- ------------  ---------------
    78      0.396409   9 O  s                74      0.370412   9 O  s         
   114     -0.339955  13 O  s               110     -0.246771  13 O  s         
   104      0.211231  12 C  pz               73     -0.169465   9 O  s         

 Vector   17  Occ=2.000000D+00  E=-1.382251D+00
              MO Center= -2.4D+00, -2.2D-01, -3.4D-02, r^2= 1.5D+00
   Bfn.  Coefficient  Atom+Function         Bfn.  Coefficient  Atom+Function  
  ----- ------------  ---------------      ----- ------------  ---------------
    69      0.402377   8 O  s                87     -0.378052  10 O  s         
    65      0.350414   8 O  s                83     -0.293109  10 O  s         
    94     -0.175383  11 C  py               64     -0.162548   8 O  s         

 Vector   18  Occ=2.000000D+00  E=-1.184817D+00
              MO Center=  6.2D-01, -1.4D+00, -8.7D-02, r^2= 2.6D+00
   Bfn.  Coefficient  Atom+Function         Bfn.  Coefficient  Atom+Function  
  ----- ------------  ---------------      ----- ------------  ---------------
    47      0.204767   6 C  s                 2      0.183268   1 C  s         
    56      0.174548   7 C  s                29      0.171311   4 C  s         
    20      0.169842   3 C  s                11      0.168924   2 C  s         

 Vector   19  Occ=2.000000D+00  E=-1.070224D+00
              MO Center=  5.5D-01, -1.1D+00, -1.1D-01, r^2= 4.3D+00
   Bfn.  Coefficient  Atom+Function         Bfn.  Coefficient  Atom+Function  
  ----- ------------  ---------------      ----- ------------  ---------------
    47     -0.245670   6 C  s                29      0.240549   4 C  s         
    51     -0.165165   6 C  s                33      0.164295   4 C  s         

 Vector   20  Occ=2.000000D+00  E=-1.057213D+00
              MO Center=  6.0D-01,  2.7D-01, -1.2D-01, r^2= 6.5D+00
   Bfn.  Coefficient  Atom+Function         Bfn.  Coefficient  Atom+Function  
  ----- ------------  ---------------      ----- ------------  ---------------
    38      0.194267   5 C  s                 2      0.192794   1 C  s         
    42      0.185880   5 C  s                11     -0.175945   2 C  s         
    56     -0.170114   7 C  s         

 Vector   21  Occ=2.000000D+00  E=-1.015148D+00
              MO Center=  6.6D-01,  9.5D-01, -7.6D-02, r^2= 7.9D+00
   Bfn.  Coefficient  Atom+Function         Bfn.  Coefficient  Atom+Function  
  ----- ------------  ---------------      ----- ------------  ---------------
    42      0.266822   5 C  s                38      0.262549   5 C  s         
    20     -0.173662   3 C  s                11      0.150788   2 C  s         

 Vector   22  Occ=2.000000D+00  E=-9.176161D-01
              MO Center= -2.3D-01, -7.1D-01, -1.5D-01, r^2= 5.7D+00
   Bfn.  Coefficient  Atom+Function         Bfn.  Coefficient  Atom+Function  
  ----- ------------  ---------------      ----- ------------  ---------------
    92      0.218490  11 C  s                29      0.192031   4 C  s         
    33      0.168808   4 C  s                84      0.152714  10 O  px        
    93      0.152426  11 C  px               48     -0.151321   6 C  px        
    96      0.151485  11 C  s         

 Vector   23  Occ=2.000000D+00  E=-8.691298D-01
              MO Center=  6.4D-01, -3.9D-01, -1.7D-01, r^2= 6.2D+00
   Bfn.  Coefficient  Atom+Function         Bfn.  Coefficient  Atom+Function  
  ----- ------------  ---------------      ----- ------------  ---------------
   112      0.228005  13 O  py               20     -0.165280   3 C  s         
    11      0.157762   2 C  s                49     -0.155708   6 C  py        
    15      0.154476   2 C  s                31      0.150656   4 C  py        

 Vector   24  Occ=2.000000D+00  E=-8.275215D-01
              MO Center= -1.3D-01, -4.0D-01, -2.1D-01, r^2= 5.4D+00
   Bfn.  Coefficient  Atom+Function         Bfn.  Coefficient  Atom+Function  
  ----- ------------  ---------------      ----- ------------  ---------------
    57      0.193754   7 C  px               85     -0.183804  10 O  py        
    48     -0.170573   6 C  px               92      0.170008  11 C  s         

 Vector   25  Occ=2.000000D+00  E=-7.958662D-01
              MO Center=  1.6D-01,  4.0D-02, -1.5D-01, r^2= 6.7D+00
   Bfn.  Coefficient  Atom+Function         Bfn.  Coefficient  Atom+Function  
  ----- ------------  ---------------      ----- ------------  ---------------
    85      0.175953  10 O  py              101     -0.174720  12 C  s         
   112     -0.166756  13 O  py        

 Vector   26  Occ=2.000000D+00  E=-7.306989D-01
              MO Center= -1.5D-01, -4.8D-01,  3.6D-02, r^2= 6.8D+00
   Bfn.  Coefficient  Atom+Function         Bfn.  Coefficient  Atom+Function  
  ----- ------------  ---------------      ----- ------------  ---------------
    85      0.211002  10 O  py               94     -0.202038  11 C  py        
    78     -0.176191   9 O  s                13      0.153436   2 C  py        
    22     -0.151695   3 C  py        

 Vector   27  Occ=2.000000D+00  E=-7.197277D-01
              MO Center= -1.2D+00, -2.9D-01, -9.4D-02, r^2= 5.8D+00
   Bfn.  Coefficient  Atom+Function         Bfn.  Coefficient  Atom+Function  
  ----- ------------  ---------------      ----- ------------  ---------------
    69      0.298228   8 O  s                84      0.268964  10 O  px        
   111     -0.179572  13 O  px               66     -0.175211   8 O  px        
    88      0.166604  10 O  px               67     -0.159195   8 O  py        
    65      0.155876   8 O  s                92     -0.152677  11 C  s         

 Vector   28  Occ=2.000000D+00  E=-7.014282D-01
              MO Center=  2.4D-01,  2.7D-01,  2.5D-01, r^2= 6.7D+00
   Bfn.  Coefficient  Atom+Function         Bfn.  Coefficient  Atom+Function  
  ----- ------------  ---------------      ----- ------------  ---------------
    78      0.253036   9 O  s                77      0.240850   9 O  pz        
   112      0.187183  13 O  py              104     -0.163007  12 C  pz        
    30     -0.152770   4 C  px        

 Vector   29  Occ=2.000000D+00  E=-6.947488D-01
              MO Center=  5.5D-01,  1.9D+00,  1.0D-01, r^2= 3.6D+00
   Bfn.  Coefficient  Atom+Function         Bfn.  Coefficient  Atom+Function  
  ----- ------------  ---------------      ----- ------------  ---------------
    76      0.280153   9 O  py              103      0.276610  12 C  py        
   113     -0.257584  13 O  pz               42     -0.220687   5 C  s         
   107      0.187823  12 C  py               40     -0.183065   5 C  py        
   117     -0.154172  13 O  pz               80      0.150181   9 O  py        

 Vector   30  Occ=2.000000D+00  E=-6.759061D-01
              MO Center=  1.5D-02, -3.6D-01, -3.0D-02, r^2= 7.2D+00
   Bfn.  Coefficient  Atom+Function         Bfn.  Coefficient  Atom+Function  
  ----- ------------  ---------------      ----- ------------  ---------------
    84      0.192527  10 O  px              111      0.188784  13 O  px        
    57      0.163503   7 C  px               22      0.158331   3 C  py        

 Vector   31  Occ=2.000000D+00  E=-6.657006D-01
              MO Center=  2.9D-01, -5.6D-01,  4.2D-02, r^2= 8.3D+00
   Bfn.  Coefficient  Atom+Function         Bfn.  Coefficient  Atom+Function  
  ----- ------------  ---------------      ----- ------------  ---------------
    66      0.210858   8 O  px               30     -0.188571   4 C  px        
    51     -0.173075   6 C  s                22      0.161539   3 C  py        
   111     -0.161785  13 O  px        

 Vector   32  Occ=2.000000D+00  E=-6.487729D-01
              MO Center= -1.8D+00,  1.5D-01, -1.7D-01, r^2= 2.9D+00
   Bfn.  Coefficient  Atom+Function         Bfn.  Coefficient  Atom+Function  
  ----- ------------  ---------------      ----- ------------  ---------------
    86      0.399128  10 O  pz               90      0.275339  10 O  pz        
    95      0.260801  11 C  pz               68      0.234115   8 O  pz        

 Vector   33  Occ=2.000000D+00  E=-6.329915D-01
              MO Center=  4.9D-01, -3.8D-03, -2.2D-02, r^2= 7.8D+00
   Bfn.  Coefficient  Atom+Function         Bfn.  Coefficient  Atom+Function  
  ----- ------------  ---------------      ----- ------------  ---------------
    12      0.226871   2 C  px                3      0.216984   1 C  px        
    39      0.177054   5 C  px               57     -0.161412   7 C  px        

 Vector   34  Occ=2.000000D+00  E=-6.235747D-01
              MO Center=  5.6D-01, -2.5D-01, -5.3D-02, r^2= 7.5D+00
   Bfn.  Coefficient  Atom+Function         Bfn.  Coefficient  Atom+Function  
  ----- ------------  ---------------      ----- ------------  ---------------
     4      0.241291   1 C  py               13      0.194030   2 C  py        
    49     -0.188017   6 C  py               39     -0.180865   5 C  px        
   122      0.162286  16 H  s         

 Vector   35  Occ=2.000000D+00  E=-5.967177D-01
              MO Center= -1.2D+00, -2.0D-01, -1.3D-01, r^2= 6.6D+00
   Bfn.  Coefficient  Atom+Function         Bfn.  Coefficient  Atom+Function  
  ----- ------------  ---------------      ----- ------------  ---------------
    84      0.287868  10 O  px               66      0.268069   8 O  px        
    93     -0.225156  11 C  px               88      0.181309  10 O  px        
    70      0.172327   8 O  px               85      0.157770  10 O  py        
    52      0.151788   6 C  px        

 Vector   36  Occ=2.000000D+00  E=-5.858671D-01
              MO Center=  6.5D-01,  1.1D+00,  1.4D-01, r^2= 5.6D+00
   Bfn.  Coefficient  Atom+Function         Bfn.  Coefficient  Atom+Function  
  ----- ------------  ---------------      ----- ------------  ---------------
    77      0.318631   9 O  pz              113      0.266148  13 O  pz        
   104     -0.223333  12 C  pz              117      0.202847  13 O  pz        
    81      0.196420   9 O  pz              103      0.171061  12 C  py        
    41      0.167286   5 C  pz               58      0.161050   7 C  py        
    22      0.150033   3 C  py        

 Vector   37  Occ=2.000000D+00  E=-5.679078D-01
              MO Center=  5.1D-01,  2.4D+00,  3.9D-02, r^2= 7.2D+00
   Bfn.  Coefficient  Atom+Function         Bfn.  Coefficient  Atom+Function  
  ----- ------------  ---------------      ----- ------------  ---------------
    41      0.333402   5 C  pz              130      0.262135  20 H  s         
    40      0.209639   5 C  py              131      0.196750  20 H  s         
    45      0.180077   5 C  pz        

 Vector   38  Occ=2.000000D+00  E=-5.619346D-01
              MO Center=  7.2D-01,  9.3D-01, -3.1D-01, r^2= 8.1D+00
   Bfn.  Coefficient  Atom+Function         Bfn.  Coefficient  Atom+Function  
  ----- ------------  ---------------      ----- ------------  ---------------
   111      0.305142  13 O  px               39     -0.274260   5 C  px        
   115      0.215164  13 O  px               21     -0.201815   3 C  px        
     3      0.176746   1 C  px               30      0.176822   4 C  px        
    43     -0.170630   5 C  px              132     -0.162652  21 H  s         

 Vector   39  Occ=2.000000D+00  E=-5.324543D-01
              MO Center=  7.1D-01, -8.5D-01, -5.8D-03, r^2= 7.5D+00
   Bfn.  Coefficient  Atom+Function         Bfn.  Coefficient  Atom+Function  
  ----- ------------  ---------------      ----- ------------  ---------------
    31      0.227011   4 C  py               22     -0.187803   3 C  py        
     4      0.184492   1 C  py               13     -0.183460   2 C  py        
   124      0.158124  17 H  s               112     -0.150546  13 O  py        

 Vector   40  Occ=2.000000D+00  E=-5.234508D-01
              MO Center=  6.5D-01, -4.8D-01,  1.3D-01, r^2= 7.6D+00
   Bfn.  Coefficient  Atom+Function         Bfn.  Coefficient  Atom+Function  
  ----- ------------  ---------------      ----- ------------  ---------------
    75      0.220077   9 O  px               30     -0.208687   4 C  px        
    21      0.199905   3 C  px               57     -0.192130   7 C  px        
     3     -0.190469   1 C  px               12      0.160958   2 C  px        
    79      0.158070   9 O  px        

 Vector   41  Occ=2.000000D+00  E=-5.209088D-01
              MO Center=  3.1D-01, -8.8D-01, -1.2D-01, r^2= 5.2D+00
   Bfn.  Coefficient  Atom+Function         Bfn.  Coefficient  Atom+Function  
  ----- ------------  ---------------      ----- ------------  ---------------
    86     -0.198296  10 O  pz                5      0.185154   1 C  pz        
    32      0.179398   4 C  pz              113     -0.175968  13 O  pz        
    50      0.165978   6 C  pz               90     -0.160505  10 O  pz        
    59      0.157442   7 C  pz        

 Vector   42  Occ=2.000000D+00  E=-4.855091D-01
              MO Center= -1.8D+00, -3.9D-01, -2.3D-02, r^2= 4.2D+00
   Bfn.  Coefficient  Atom+Function         Bfn.  Coefficient  Atom+Function  
  ----- ------------  ---------------      ----- ------------  ---------------
    68      0.407965   8 O  pz               86     -0.336634  10 O  pz        
    72      0.314676   8 O  pz               90     -0.289789  10 O  pz        
    95      0.152554  11 C  pz        

 Vector   43  Occ=2.000000D+00  E=-4.762099D-01
              MO Center=  1.7D-01,  9.3D-01,  3.0D-01, r^2= 4.7D+00
   Bfn.  Coefficient  Atom+Function         Bfn.  Coefficient  Atom+Function  
  ----- ------------  ---------------      ----- ------------  ---------------
   111     -0.378781  13 O  px               75      0.373395   9 O  px        
   115     -0.318612  13 O  px               79      0.292425   9 O  px        
    67     -0.206077   8 O  py        

 Vector   44  Occ=2.000000D+00  E=-4.668038D-01
              MO Center= -1.8D+00, -4.4D-01,  1.7D-01, r^2= 4.4D+00
   Bfn.  Coefficient  Atom+Function         Bfn.  Coefficient  Atom+Function  
  ----- ------------  ---------------      ----- ------------  ---------------
    67      0.404372   8 O  py               66     -0.302435   8 O  px        
    71      0.294540   8 O  py               52     -0.266469   6 C  px        
    70     -0.205765   8 O  px               85      0.204274  10 O  py        
    89      0.200815  10 O  py               48     -0.194284   6 C  px        
    87     -0.184169  10 O  s                51      0.171171   6 C  s         

 Vector   45  Occ=2.000000D+00  E=-4.574723D-01
              MO Center=  5.5D-01,  1.7D+00,  8.4D-01, r^2= 3.1D+00
   Bfn.  Coefficient  Atom+Function         Bfn.  Coefficient  Atom+Function  
  ----- ------------  ---------------      ----- ------------  ---------------
    76      0.534367   9 O  py               80      0.388667   9 O  py        
   117      0.197933  13 O  pz               40      0.188035   5 C  py        
   113      0.187113  13 O  pz              114      0.184041  13 O  s         
    42     -0.153975   5 C  s         

 Vector   46  Occ=2.000000D+00  E=-3.664090D-01
              MO Center=  5.3D-01, -1.4D+00, -7.4D-02, r^2= 3.8D+00
   Bfn.  Coefficient  Atom+Function         Bfn.  Coefficient  Atom+Function  
  ----- ------------  ---------------      ----- ------------  ---------------
    50      0.319760   6 C  pz               32     -0.284308   4 C  pz        
    54      0.284892   6 C  pz               36     -0.235267   4 C  pz        
    14     -0.178981   2 C  pz               68     -0.157447   8 O  pz        

 Vector   47  Occ=2.000000D+00  E=-3.539202D-01
              MO Center=  7.9D-01, -1.5D+00, -9.2D-02, r^2= 3.3D+00
   Bfn.  Coefficient  Atom+Function         Bfn.  Coefficient  Atom+Function  
  ----- ------------  ---------------      ----- ------------  ---------------
    59     -0.283529   7 C  pz               23      0.276367   3 C  pz        
    14     -0.257825   2 C  pz                5      0.248587   1 C  pz        
    27      0.238655   3 C  pz               18     -0.222198   2 C  pz        
    63     -0.209459   7 C  pz                9      0.207316   1 C  pz        

 Vector   48  Occ=0.000000D+00  E= 7.225233D-02
              MO Center= -1.5D-01, -1.2D+00, -5.4D-02, r^2= 5.0D+00
   Bfn.  Coefficient  Atom+Function         Bfn.  Coefficient  Atom+Function  
  ----- ------------  ---------------      ----- ------------  ---------------
    36      0.410716   4 C  pz               54      0.364368   6 C  pz        
     9     -0.307204   1 C  pz               63     -0.279166   7 C  pz        
    99      0.262313  11 C  pz               32      0.256302   4 C  pz        
    95      0.256320  11 C  pz               72     -0.253233   8 O  pz        
    50      0.215033   6 C  pz               59     -0.207369   7 C  pz        

 Vector   49  Occ=0.000000D+00  E= 1.219938D-01
              MO Center=  7.8D-01, -1.4D+00, -7.7D-02, r^2= 3.9D+00
   Bfn.  Coefficient  Atom+Function         Bfn.  Coefficient  Atom+Function  
  ----- ------------  ---------------      ----- ------------  ---------------
     9      0.477797   1 C  pz               18      0.475501   2 C  pz        
    27     -0.456660   3 C  pz               63     -0.444260   7 C  pz        
    59     -0.299382   7 C  pz                5      0.265480   1 C  pz        
    14      0.262983   2 C  pz               23     -0.249391   3 C  pz        
    62     -0.196177   7 C  py              105      0.181861  12 C  s         

 Vector   50  Occ=0.000000D+00  E= 1.560020D-01
              MO Center=  6.4D-01,  2.0D+00,  3.8D-01, r^2= 2.6D+00
   Bfn.  Coefficient  Atom+Function         Bfn.  Coefficient  Atom+Function  
  ----- ------------  ---------------      ----- ------------  ---------------
   106      0.601650  12 C  px              102      0.496840  12 C  px        
    79     -0.456537   9 O  px              129      0.453704  19 H  s         
   133     -0.441614  21 H  s                75     -0.348463   9 O  px        
    43      0.256792   5 C  px               61     -0.241245   7 C  px        
    51     -0.197275   6 C  s                15      0.194508   2 C  s         

 Vector   51  Occ=0.000000D+00  E= 2.127714D-01
              MO Center= -1.8D+00,  4.2D-01, -2.4D-01, r^2= 9.1D+00
   Bfn.  Coefficient  Atom+Function         Bfn.  Coefficient  Atom+Function  
  ----- ------------  ---------------      ----- ------------  ---------------
   119      1.256380  14 H  s                87     -0.738830  10 O  s         
    42     -0.484228   5 C  s                96      0.466105  11 C  s         
    60     -0.445554   7 C  s                52      0.434080   6 C  px        
   125      0.434321  17 H  s                88      0.418565  10 O  px        
   123      0.411662  16 H  s               129      0.391011  19 H  s         

 Vector   52  Occ=0.000000D+00  E= 2.164672D-01
              MO Center= -6.7D-01, -8.8D-01, -1.1D-01, r^2= 6.7D+00
   Bfn.  Coefficient  Atom+Function         Bfn.  Coefficient  Atom+Function  
  ----- ------------  ---------------      ----- ------------  ---------------
    99     -0.531934  11 C  pz               36      0.493843   4 C  pz        
   119      0.441324  14 H  s                95     -0.397213  11 C  pz        
    27     -0.390755   3 C  pz               72      0.336895   8 O  pz        
    18     -0.309885   2 C  pz               42     -0.304329   5 C  s         
    54      0.288104   6 C  pz               87     -0.251317  10 O  s         

 Vector   53  Occ=0.000000D+00  E= 2.282431D-01
              MO Center=  1.1D+00, -1.5D+00, -1.0D-01, r^2= 1.2D+01
   Bfn.  Coefficient  Atom+Function         Bfn.  Coefficient  Atom+Function  
  ----- ------------  ---------------      ----- ------------  ---------------
   127      1.102948  18 H  s                33     -0.873920   4 C  s         
   125      0.871818  17 H  s               123      0.857923  16 H  s         
    24     -0.753875   3 C  s                15     -0.624249   2 C  s         
   119     -0.612190  14 H  s               121      0.541293  15 H  s         
    42      0.524950   5 C  s                 6     -0.473521   1 C  s         

 Vector   54  Occ=0.000000D+00  E= 2.508445D-01
              MO Center=  4.5D-01,  3.2D+00, -4.4D-01, r^2= 6.4D+00
   Bfn.  Coefficient  Atom+Function         Bfn.  Coefficient  Atom+Function  
  ----- ------------  ---------------      ----- ------------  ---------------
    42      2.301975   5 C  s               133     -1.358489  21 H  s         
   129     -0.931957  19 H  s               131     -0.908063  20 H  s         
   105     -0.597738  12 C  s               119      0.523111  14 H  s         
   123     -0.481588  16 H  s                16      0.376061   2 C  px        
    44      0.367973   5 C  py              114      0.326014  13 O  s         

 Vector   55  Occ=0.000000D+00  E= 2.796589D-01
              MO Center=  1.2D+00, -1.5D+00,  6.7D-02, r^2= 1.2D+01
   Bfn.  Coefficient  Atom+Function         Bfn.  Coefficient  Atom+Function  
  ----- ------------  ---------------      ----- ------------  ---------------
   123      1.435881  16 H  s                24      1.304057   3 C  s         
   125     -1.279957  17 H  s               121     -0.991353  15 H  s         
    15     -0.883964   2 C  s               131     -0.678344  20 H  s         
    16     -0.673664   2 C  px                7     -0.603229   1 C  px        
     6      0.558858   1 C  s                17     -0.553233   2 C  py        

 Vector   56  Occ=0.000000D+00  E= 2.899594D-01
              MO Center=  5.8D-01,  1.8D+00,  8.4D-02, r^2= 1.3D+01
   Bfn.  Coefficient  Atom+Function         Bfn.  Coefficient  Atom+Function  
  ----- ------------  ---------------      ----- ------------  ---------------
   131      1.421586  20 H  s                45     -1.046554   5 C  pz        
   127      0.834796  18 H  s               129     -0.827258  19 H  s         
    33     -0.782894   4 C  s               121     -0.747900  15 H  s         
     6      0.624529   1 C  s               133     -0.624228  21 H  s         
   114     -0.475958  13 O  s                 7     -0.462604   1 C  px        

 Vector   57  Occ=0.000000D+00  E= 3.079160D-01
              MO Center=  1.9D+00, -9.5D-01, -1.7D-01, r^2= 1.2D+01
   Bfn.  Coefficient  Atom+Function         Bfn.  Coefficient  Atom+Function  
  ----- ------------  ---------------      ----- ------------  ---------------
   127      1.719588  18 H  s               123     -1.385463  16 H  s         
     6      1.327662   1 C  s                34     -1.174849   4 C  px        
    16      0.992091   2 C  px               33     -0.949849   4 C  s         
   121     -0.781310  15 H  s               131     -0.673298  20 H  s         
   129      0.610835  19 H  s                15      0.557596   2 C  s         

 Vector   58  Occ=0.000000D+00  E= 3.146972D-01
              MO Center=  5.1D-01, -4.3D-01,  8.8D-02, r^2= 1.6D+01
   Bfn.  Coefficient  Atom+Function         Bfn.  Coefficient  Atom+Function  
  ----- ------------  ---------------      ----- ------------  ---------------
   125      1.485321  17 H  s                26      1.199470   3 C  py        
   121     -1.106390  15 H  s                15      0.859216   2 C  s         
    16     -0.851819   2 C  px              129     -0.827227  19 H  s         
    60     -0.820138   7 C  s               133      0.819602  21 H  s         
    43     -0.809840   5 C  px               62      0.796363   7 C  py        

 Vector   59  Occ=0.000000D+00  E= 3.250287D-01
              MO Center=  5.1D-01,  1.2D+00, -3.6D-01, r^2= 1.4D+01
   Bfn.  Coefficient  Atom+Function         Bfn.  Coefficient  Atom+Function  
  ----- ------------  ---------------      ----- ------------  ---------------
   129      1.318990  19 H  s               133     -1.280199  21 H  s         
    43      1.250669   5 C  px              121     -1.045211  15 H  s         
   125      0.979509  17 H  s                26      0.915424   3 C  py        
     7     -0.757085   1 C  px              123      0.756256  16 H  s         
   127     -0.720552  18 H  s                34      0.667665   4 C  px        

 Vector   60  Occ=0.000000D+00  E= 3.418339D-01
              MO Center=  3.3D-01,  1.3D-01, -1.9D-02, r^2= 9.0D+00
   Bfn.  Coefficient  Atom+Function         Bfn.  Coefficient  Atom+Function  
  ----- ------------  ---------------      ----- ------------  ---------------
   105      1.685976  12 C  s                44      0.889242   5 C  py        
   121      0.765891  15 H  s               114     -0.750445  13 O  s         
    15     -0.609590   2 C  s                 9     -0.595205   1 C  pz        
   131     -0.522531  20 H  s               125     -0.517170  17 H  s         
    27      0.494701   3 C  pz                8      0.456362   1 C  py        

 Vector   61  Occ=0.000000D+00  E= 3.660335D-01
              MO Center=  3.7D-01, -7.8D-01, -6.2D-02, r^2= 6.2D+00
   Bfn.  Coefficient  Atom+Function         Bfn.  Coefficient  Atom+Function  
  ----- ------------  ---------------      ----- ------------  ---------------
     8      0.745135   1 C  py               62      0.719545   7 C  py        
   114     -0.691344  13 O  s               121      0.687497  15 H  s         
    24      0.668852   3 C  s                35      0.633398   4 C  py        
    15     -0.606743   2 C  s                54     -0.565414   6 C  pz        
    96     -0.556073  11 C  s                52     -0.483122   6 C  px        

 Vector   62  Occ=0.000000D+00  E= 4.010990D-01
              MO Center=  4.7D-01,  2.3D+00, -1.6D-01, r^2= 7.0D+00
   Bfn.  Coefficient  Atom+Function         Bfn.  Coefficient  Atom+Function  
  ----- ------------  ---------------      ----- ------------  ---------------
   105      2.414072  12 C  s                42     -1.863991   5 C  s         
    44      1.696214   5 C  py              107      1.411109  12 C  py        
    45     -0.849591   5 C  pz               96      0.600988  11 C  s         
    63      0.440358   7 C  pz              108     -0.403256  12 C  pz        
    24     -0.400815   3 C  s                33     -0.387294   4 C  s         

 Vector   63  Occ=0.000000D+00  E= 4.102269D-01
              MO Center=  5.3D-01, -9.2D-01, -5.8D-02, r^2= 7.1D+00
   Bfn.  Coefficient  Atom+Function         Bfn.  Coefficient  Atom+Function  
  ----- ------------  ---------------      ----- ------------  ---------------
    60      2.131826   7 C  s                24      1.520747   3 C  s         
    33     -1.343737   4 C  s                26      1.202140   3 C  py        
    15     -1.105033   2 C  s                34      0.936198   4 C  px        
    51     -0.913299   6 C  s                16      0.893690   2 C  px        
   125      0.812017  17 H  s                17     -0.787113   2 C  py        

 Vector   64  Occ=0.000000D+00  E= 4.175313D-01
              MO Center= -6.1D-01,  7.3D-02,  2.1D-02, r^2= 7.4D+00
   Bfn.  Coefficient  Atom+Function         Bfn.  Coefficient  Atom+Function  
  ----- ------------  ---------------      ----- ------------  ---------------
    96      2.399769  11 C  s                33     -1.292705   4 C  s         
     6      1.157445   1 C  s                42      1.124650   5 C  s         
   107     -1.099417  12 C  py               25      0.815985   3 C  px        
    52      0.730613   6 C  px               78     -0.722218   9 O  s         
    69     -0.687517   8 O  s                44     -0.664689   5 C  py        

 Vector   65  Occ=0.000000D+00  E= 4.481705D-01
              MO Center= -5.3D-02, -9.0D-01,  1.0D-01, r^2= 7.0D+00
   Bfn.  Coefficient  Atom+Function         Bfn.  Coefficient  Atom+Function  
  ----- ------------  ---------------      ----- ------------  ---------------
     6      1.855087   1 C  s                33     -1.411701   4 C  s         
    25      1.246017   3 C  px               53      1.115022   6 C  py        
    34      0.860548   4 C  px               69      0.834064   8 O  s         
   123      0.816061  16 H  s               107      0.804672  12 C  py        
    78      0.785797   9 O  s                 8      0.741781   1 C  py        

 Vector   66  Occ=0.000000D+00  E= 4.654116D-01
              MO Center= -4.7D-01, -1.9D-01, -5.5D-02, r^2= 7.7D+00
   Bfn.  Coefficient  Atom+Function         Bfn.  Coefficient  Atom+Function  
  ----- ------------  ---------------      ----- ------------  ---------------
    96      2.085954  11 C  s                33      1.666213   4 C  s         
    60     -1.461666   7 C  s                69     -1.183566   8 O  s         
    97     -1.072434  11 C  px               25     -0.959552   3 C  px        
    17      0.947059   2 C  py              107      0.802328  12 C  py        
    78      0.735407   9 O  s                 7     -0.698505   1 C  px        

 Vector   67  Occ=0.000000D+00  E= 4.943334D-01
              MO Center=  7.7D-01, -1.5D+00, -7.8D-02, r^2= 6.7D+00
   Bfn.  Coefficient  Atom+Function         Bfn.  Coefficient  Atom+Function  
  ----- ------------  ---------------      ----- ------------  ---------------
    15      2.713817   2 C  s                35     -1.893143   4 C  py        
     6      1.547794   1 C  s                97     -1.473311  11 C  px        
    24     -1.424837   3 C  s                52     -1.298765   6 C  px        
     8      1.210291   1 C  py               53      1.168415   6 C  py        
    69     -1.063699   8 O  s                51     -1.010533   6 C  s         

 Vector   68  Occ=0.000000D+00  E= 4.978814D-01
              MO Center=  4.3D-01, -4.6D-01,  1.9D-01, r^2= 8.3D+00
   Bfn.  Coefficient  Atom+Function         Bfn.  Coefficient  Atom+Function  
  ----- ------------  ---------------      ----- ------------  ---------------
    24      2.220050   3 C  s                60     -2.073243   7 C  s         
    53      1.754491   6 C  py                8      1.626163   1 C  py        
   108      1.421938  12 C  pz               51     -1.244521   6 C  s         
     7     -1.222452   1 C  px              114      1.222507  13 O  s         
    78     -1.194916   9 O  s                17      1.069967   2 C  py        

 Vector   69  Occ=0.000000D+00  E= 5.297603D-01
              MO Center=  3.9D-01,  8.5D-01,  1.5D-01, r^2= 6.9D+00
   Bfn.  Coefficient  Atom+Function         Bfn.  Coefficient  Atom+Function  
  ----- ------------  ---------------      ----- ------------  ---------------
   108      2.344522  12 C  pz               60      2.088261   7 C  s         
    51      1.931486   6 C  s                78     -1.458909   9 O  s         
    17     -1.177390   2 C  py              116      1.021687  13 O  py        
     6     -1.006566   1 C  s                98      1.005770  11 C  py        
     8     -0.950475   1 C  py               33     -0.889528   4 C  s         


------------------------------------------------------------
EAF file 0: "./molecule.aoints.0" size=268959744 bytes
------------------------------------------------------------
               write      read    awrite     aread      wait
               -----      ----    ------     -----      ----
     calls:      513        17         0      8704      8704
   data(b): 2.69e+08  8.91e+06  0.00e+00  4.56e+09
   time(s): 0.00e+00  0.00e+00  0.00e+00  0.00e+00  0.00e+00
rate(mb/s): 0.00e+00  0.00e+00
------------------------------------------------------------


 center of mass
 --------------
 x =  -0.04314512 y =  -0.02902200 z =   0.01110773

 moments of inertia (a.u.)
 ------------------
        2352.901860332041          -0.000000000000          -0.000000000001
          -0.000000000000        1663.594209381265          -0.000000000000
          -0.000000000001          -0.000000000000        3584.992328006921

  Mulliken analysis of the total density
  --------------------------------------

    Atom       Charge   Shell Charges
 -----------   ------   -------------------------------------------------------
    1 C    6     6.16   2.00  0.71  2.00  0.47  0.98
    2 C    6     6.20   2.00  0.70  2.03  0.48  0.99
    3 C    6     6.21   2.00  0.69  2.02  0.49  1.01
    4 C    6     6.17   2.00  0.71  2.00  0.48  0.98
    5 C    6     6.52   2.00  0.65  2.11  0.74  1.02
    6 C    6     6.12   2.00  0.69  2.06  0.45  0.93
    7 C    6     5.62   2.00  0.71  1.96  0.41  0.54
    8 O    8     8.56   2.00  0.91  2.85  1.05  1.75
    9 O    8     8.54   2.00  0.92  2.83  1.06  1.74
   10 O    8     8.72   2.00  0.89  2.90  1.06  1.86
   11 C    6     5.22   2.00  0.76  1.90  0.12  0.43
   12 C    6     5.25   2.00  0.76  1.86  0.24  0.40
   13 O    8     8.73   2.00  0.88  2.89  1.11  1.86
   14 H    1     0.56   0.47  0.08
   15 H    1     0.73   0.52  0.20
   16 H    1     0.77   0.53  0.24
   17 H    1     0.78   0.53  0.25
   18 H    1     0.78   0.53  0.24
   19 H    1     0.78   0.52  0.26
   20 H    1     0.80   0.53  0.27
   21 H    1     0.80   0.52  0.27

       Multipole analysis of the density wrt the origin
       ------------------------------------------------

     L   x y z        total         open         nuclear
     -   - - -        -----         ----         -------
     0   0 0 0     -0.000000      0.000000     94.000000

     1   1 0 0      0.772250      0.000000      0.000000
     1   0 1 0      0.180087      0.000000     -0.000000
     1   0 0 1     -0.785866      0.000000     -0.000000

     2   2 0 0    -53.233377      0.000000    778.343988
     2   1 1 0     -6.810018      0.000000    -11.144281
     2   1 0 1     -0.453750      0.000000     -3.193915
     2   0 2 0    -45.396961      0.000000   1200.999151
     2   0 1 1     -2.846426      0.000000    -11.664794
     2   0 0 2    -62.752700      0.000000    113.104957


 Parallel integral file used     513 records with       0 large values

                              NWChem Gradients Module
                              -----------------------


                                      aspirin


  wavefunction    =   RHF     



                         RHF ENERGY GRADIENTS

    atom               coordinates                        gradient
                 x          y          z           x          y          z
   1 C      -0.650139  -4.295548   0.500076   -0.007836   0.006980  -0.000863
   2 C       3.615743  -1.502803  -0.831483    0.004674  -0.000037  -0.001849
   3 C       1.731667  -5.439695   0.483952    0.006810   0.001649  -0.001548
   4 C       3.861124  -4.044614  -0.187774    0.000295  -0.001131   0.000316
   5 C       1.000090   6.479256  -0.368133    0.000616  -0.008460  -0.009753
   6 C      -0.935130  -1.736564  -0.148713    0.000747   0.007171  -0.001565
   7 C       1.232212  -0.353329  -0.782527   -0.012337   0.025039   0.015634
   8 O      -5.422301  -1.905059   0.511355   -0.005666  -0.000422   0.001101
   9 O       1.428918   3.224292   2.793254    0.003145   0.006790   0.039647
  10 O      -3.773641   1.688953  -0.891303    0.040717   0.000369  -0.008315
  11 C      -3.550662  -0.720157  -0.119767   -0.021419   0.011791  -0.000818
  12 C       1.214080   3.813192   0.566682    0.003311  -0.031405  -0.007074
  13 O       1.144887   2.187041  -1.494997   -0.004636   0.008290  -0.044708
  14 H      -5.592902   2.010836  -0.747421   -0.021547  -0.014057   0.007833
  15 H      -2.293337  -5.420800   1.020847   -0.008297  -0.011273   0.004216
  16 H       5.277622  -0.416879  -1.355515    0.011809   0.002960  -0.002341
  17 H       1.918250  -7.421507   0.994469    0.001742  -0.011111   0.002825
  18 H       5.711706  -4.936535  -0.205173    0.009642  -0.005410   0.000321
  19 H      -0.777768   6.724881  -1.390063   -0.009834   0.002701  -0.000065
  20 H       1.012005   7.772571   1.245956   -0.000685   0.007457   0.007685
  21 H       2.607604   6.927176  -1.583443    0.008748   0.002107  -0.000679

                 ----------------------------------------
                 |  Time  |  1-e(secs)   |  2-e(secs)   |
                 ----------------------------------------
                 |  CPU   |       0.04   |       9.03   |
                 ----------------------------------------
                 |  WALL  |       0.04   |       9.07   |
                 ----------------------------------------

@ Step       Energy      Delta E   Gmax     Grms     Xrms     Xmax   Walltime
@ ---- ---------------- -------- -------- -------- -------- -------- --------
@    0    -644.66120519  0.0D+00  0.03673  0.00776  0.00000  0.00000     22.1
                                                                    



                                Z-matrix (autoz)
                                -------- 

 Units are Angstrom for bonds and degrees for angles

      Type          Name      I     J     K     L     M      Value     Gradient
      ----------- --------  ----- ----- ----- ----- ----- ---------- ----------
    1 Stretch                  1     3                       1.39830    0.01754
    2 Stretch                  1     6                       1.40512    0.01143
    3 Stretch                  1    15                       1.08932    0.01385
    4 Stretch                  2     4                       1.39359    0.00965
    5 Stretch                  2     7                       1.40056    0.01967
    6 Stretch                  2    16                       1.08651    0.01172
    7 Stretch                  3     4                       1.39326    0.00801
    8 Stretch                  3    17                       1.08746    0.01158
    9 Stretch                  4    18                       1.08713    0.01103
   10 Stretch                  5    12                       1.49932    0.00460
   11 Stretch                  5    19                       1.09291    0.00882
   12 Stretch                  5    20                       1.09453    0.01066
   13 Stretch                  5    21                       1.09243    0.00767
   14 Stretch                  6     7                       1.40131    0.00938
   15 Stretch                  6    11                       1.48499    0.00654
   16 Stretch                  7    13                       1.39694   -0.00804
   17 Stretch                  8    11                       1.21887    0.00512
   18 Stretch                  9    12                       1.22406    0.03673
   19 Stretch                 10    11                       1.34382   -0.01452
   20 Stretch                 10    14                       0.98062    0.01932
   21 Stretch                 12    13                       1.39000    0.01061
   22 Bend                     1     3     4               120.07641    0.00193
   23 Bend                     1     3    17               119.86100   -0.00059
   24 Bend                     1     6     7               118.29708   -0.00058
   25 Bend                     1     6    11               116.52421    0.00157
   26 Bend                     2     4     3               119.89551    0.00004
   27 Bend                     2     4    18               120.05964    0.00040
   28 Bend                     2     7     6               120.97359   -0.00010
   29 Bend                     2     7    13               116.27901   -0.00116
   30 Bend                     3     1     6               120.83337   -0.00087
   31 Bend                     3     1    15               118.97138   -0.00211
   32 Bend                     3     4    18               120.04468   -0.00044
   33 Bend                     4     2     7               119.90586   -0.00042
   34 Bend                     4     2    16               119.83089   -0.00199
   35 Bend                     4     3    17               120.06254   -0.00134
   36 Bend                     5    12     9               124.34470   -0.00662
   37 Bend                     5    12    13               108.75879   -0.00719
   38 Bend                     6     1    15               120.19508    0.00298
   39 Bend                     6     7    13               122.69678    0.00127
   40 Bend                     6    11     8               125.01994    0.00432
   41 Bend                     6    11    10               114.98063   -0.00537
   42 Bend                     7     2    16               120.26155    0.00240
   43 Bend                     7     6    11               125.17733   -0.00099
   44 Bend                     7    13    12               112.52262   -0.02761
   45 Bend                     8    11    10               119.99502    0.00104
   46 Bend                     9    12    13               126.89496    0.01382
   47 Bend                    11    10    14               103.14379   -0.01834
   48 Bend                    12     5    19               109.88800    0.00068
   49 Bend                    12     5    20               109.29726    0.00008
   50 Bend                    12     5    21               109.85201   -0.00057
   51 Bend                    19     5    20               108.46529   -0.00144
   52 Bend                    19     5    21               110.68393    0.00197
   53 Bend                    20     5    21               108.61756   -0.00075
   54 Torsion                  1     3     4     2           0.32538    0.00012
   55 Torsion                  1     3     4    18        -179.82507   -0.00002
   56 Torsion                  1     6     7     2           1.58226    0.00044
   57 Torsion                  1     6     7    13         178.89757    0.00066
   58 Torsion                  1     6    11     8           2.95360    0.00054
   59 Torsion                  1     6    11    10        -176.27860    0.00140
   60 Torsion                  2     4     3    17        -179.75449    0.00002
   61 Torsion                  2     7     6    11        -177.97329    0.00089
   62 Torsion                  2     7    13    12         -96.24341    0.00191
   63 Torsion                  3     1     6     7          -0.75741   -0.00026
   64 Torsion                  3     1     6    11         178.83657   -0.00069
   65 Torsion                  3     4     2     7           0.48892    0.00006
   66 Torsion                  3     4     2    16        -179.98290   -0.00029
   67 Torsion                  4     2     7     6          -1.46663   -0.00040
   68 Torsion                  4     2     7    13        -178.94705   -0.00067
   69 Torsion                  4     3     1     6          -0.18514   -0.00007
   70 Torsion                  4     3     1    15         179.67085   -0.00027
   71 Torsion                  5    12    13     7        -177.58841    0.00013
   72 Torsion                  6     1     3    17         179.89457    0.00003
   73 Torsion                  6     7     2    16         179.00725   -0.00002
   74 Torsion                  6     7    13    12          86.32370    0.00168
   75 Torsion                  6    11    10    14         179.86293   -0.00031
   76 Torsion                  7     2     4    18        -179.36060    0.00020
   77 Torsion                  7     6     1    15         179.38837   -0.00005
   78 Torsion                  7     6    11     8        -177.48378    0.00008
   79 Torsion                  7     6    11    10           3.28402    0.00094
   80 Torsion                  7    13    12     9           2.85199    0.00023
   81 Torsion                  8    11    10    14           0.58895    0.00047
   82 Torsion                  9    12     5    19        -120.54640    0.00125
   83 Torsion                  9    12     5    20          -1.62988   -0.00005
   84 Torsion                  9    12     5    21         117.45096   -0.00127
   85 Torsion                 11     6     1    15          -1.01765   -0.00048
   86 Torsion                 11     6     7    13          -0.65797    0.00112
   87 Torsion                 13     7     2    16           1.52682   -0.00029
   88 Torsion                 13    12     5    19          59.88018    0.00124
   89 Torsion                 13    12     5    20         178.79669   -0.00007
   90 Torsion                 13    12     5    21         -62.12247   -0.00128
   91 Torsion                 15     1     3    17          -0.24944   -0.00017
   92 Torsion                 16     2     4    18           0.16757   -0.00015
   93 Torsion                 17     3     4    18           0.09506   -0.00012

 Restricting large step in mode   20 eval= 5.5D-02 step= 3.4D-01 new= 3.0D-01
 Restricting large step in mode   27 eval= 6.1D-02 step= 4.6D-01 new= 3.0D-01
                                 NWChem SCF Module
                                 -----------------


                                      aspirin



  ao basis        = "ao basis"
  functions       =   133
  atoms           =    21
  closed shells   =    47
  open shells     =     0
  charge          =   0.00
  wavefunction    = RHF 
  input vectors   = ./molecule.movecs
  output vectors  = ./molecule.movecs
  use symmetry    = F
  symmetry adapt  = F


 Summary of "ao basis" -> "ao basis" (cartesian)
 ------------------------------------------------------------------------------
       Tag                 Description            Shells   Functions and Types
 ---------------- ------------------------------  ------  ---------------------
 C                           6-31G                   5        9   3s2p
 O                           6-31G                   5        9   3s2p
 H                           6-31G                   2        2   2s



 Forming initial guess at      22.2s


 Loading old vectors from job with title :

aspirin


 Starting SCF solution at      22.3s



 ----------------------------------------------
         Quadratically convergent ROHF

 Convergence threshold     :          1.000E-04
 Maximum no. of iterations :           30
 Final Fock-matrix accuracy:          1.000E-07
 ----------------------------------------------


 Integral file          = ./molecule.aoints.0
 Record size in doubles =    65536    No. of integs per rec  =    43688
 Max. records in memory =        0    Max. records in file   = ********
 No. of bits per label  =        8    No. of bits per value  =       64


 #quartets = 2.972D+06 #integrals = 2.213D+07 #direct =  0.0% #cached =100.0%


              iter       energy          gnorm     gmax       time
             ----- ------------------- --------- --------- --------
                 1     -644.6491637183  4.57D-01  5.34D-02     27.3
                 2     -644.6729144082  3.54D-02  4.21D-03     28.1
                 3     -644.6731000415  8.89D-04  2.79D-04     29.4
                 4     -644.6731002671  3.70D-06  9.57D-07     31.3


       Final RHF  results 
       ------------------ 

         Total SCF energy =   -644.673100267061
      One-electron energy =  -2435.901707989512
      Two-electron energy =   1007.709541070054
 Nuclear repulsion energy =    783.519066652398

        Time for solution =      9.7s


             Final eigenvalues
             -----------------

              1      
    1  -20.6189
    2  -20.6157
    3  -20.5709
    4  -20.5695
    5  -11.4222
    6  -11.4136
    7  -11.3395
    8  -11.2772
    9  -11.2675
   10  -11.2646
   11  -11.2562
   12  -11.2534
   13  -11.2477
   14   -1.4956
   15   -1.4876
   16   -1.3923
   17   -1.3794
   18   -1.1928
   19   -1.0726
   20   -1.0623
   21   -1.0237
   22   -0.9218
   23   -0.8748
   24   -0.8335
   25   -0.8016
   26   -0.7349
   27   -0.7134
   28   -0.7018
   29   -0.6921
   30   -0.6743
   31   -0.6676
   32   -0.6432
   33   -0.6374
   34   -0.6275
   35   -0.5902
   36   -0.5852
   37   -0.5775
   38   -0.5628
   39   -0.5382
   40   -0.5258
   41   -0.5195
   42   -0.4836
   43   -0.4714
   44   -0.4632
   45   -0.4557
   46   -0.3656
   47   -0.3555
   48    0.0754
   49    0.1291
   50    0.1713
   51    0.2151
   52    0.2205
   53    0.2333
   54    0.2531
   55    0.2837
   56    0.2933
   57    0.3139

                       ROHF Final Molecular Orbital Analysis
                       -------------------------------------

 Vector   14  Occ=2.000000D+00  E=-1.495635D+00
              MO Center= -6.5D-02,  1.1D+00,  2.0D-01, r^2= 3.2D+00
   Bfn.  Coefficient  Atom+Function         Bfn.  Coefficient  Atom+Function  
  ----- ------------  ---------------      ----- ------------  ---------------
   114      0.313205  13 O  s               110      0.255504  13 O  s         
    78      0.246640   9 O  s                74      0.241112   9 O  s         
   101      0.211031  12 C  s                87      0.180712  10 O  s         
[...]
   82 Torsion                  9    12     5    19        -119.76951   -0.00001
   83 Torsion                  9    12     5    20           1.03836   -0.00000
   84 Torsion                  9    12     5    21         122.20548   -0.00000
   85 Torsion                 11     6     1    15          -0.45893    0.00000
   86 Torsion                 11     6     7    13          -2.63300   -0.00000
   87 Torsion                 13     7     2    16           2.65830    0.00001
   88 Torsion                 13    12     5    19          61.63770   -0.00001
   89 Torsion                 13    12     5    20        -177.55443   -0.00001
   90 Torsion                 13    12     5    21         -56.38732   -0.00001
   91 Torsion                 15     1     3    17          -0.08091   -0.00000
   92 Torsion                 16     2     4    18           0.24647   -0.00000
   93 Torsion                 17     3     4    18           0.07030   -0.00000



                         Geometry "geometry" -> "geometry"
                         ---------------------------------

 Output coordinates in angstroms (scale by  1.889725989 to convert to a.u.)

  No.       Tag          Charge          X              Y              Z
 ---- ---------------- ---------- -------------- -------------- --------------
    1 C                    6.0000    -0.32806947    -2.30196408     0.18315602
    2 C                    6.0000     1.97046165    -0.86425739    -0.34451679
    3 C                    6.0000     0.88978704    -2.95248876     0.14351327
    4 C                    6.0000     2.04322727    -2.22875672    -0.12447290
    5 C                    6.0000     0.43339004     3.44767216    -0.29921862
    6 C                    6.0000    -0.42438016    -0.92753138    -0.04146300
    7 C                    6.0000     0.74807769    -0.22001665    -0.29978859
    8 O                    8.0000    -2.77945875    -1.00914246     0.26231238
    9 O                    8.0000     0.47043318     1.86761056     1.52352151
   10 O                    8.0000    -1.88524820     0.96536514    -0.23934158
   11 C                    6.0000    -1.78393765    -0.35640391     0.01522971
   12 C                    6.0000     0.53721544     2.11130356     0.34519310
   13 O                    8.0000     0.75832477     1.13806537    -0.59279745
   14 H                    1.0000    -2.78479013     1.27826272    -0.17227765
   15 H                    1.0000    -1.22962743    -2.84250761     0.38603806
   16 H                    1.0000     2.84612146    -0.28543852    -0.55474569
   17 H                    1.0000     0.93938102    -4.00857348     0.31804249
   18 H                    1.0000     2.99483318    -2.72178669    -0.16017610
   19 H                    1.0000    -0.40775011     3.44779616    -0.97880067
   20 H                    1.0000     0.30249203     4.20660939     0.45486621
   21 H                    1.0000     1.32512523     3.65041149    -0.87718949

      Atomic Mass 
      ----------- 

      C                 12.000000
      O                 15.994910
      H                  1.007825


 Effective nuclear repulsion energy (a.u.)     786.7375135057

            Nuclear Dipole moment (a.u.) 
            ----------------------------
        X                 Y               Z
 ---------------- ---------------- ----------------
     1.9139605168     1.2572409742     6.6350344673


                Final and change from initial internal coordinates
                --------------------------------------------------



                                Z-matrix (autoz)
                                -------- 

 Units are Angstrom for bonds and degrees for angles

      Type          Name      I     J     K     L     M      Value       Change
      ----------- --------  ----- ----- ----- ----- ----- ---------- ----------
    1 Stretch                  1     3                       1.38128   -0.01703
    2 Stretch                  1     6                       1.39599   -0.00912
    3 Stretch                  1    15                       1.07059   -0.01873
    4 Stretch                  2     4                       1.38404   -0.00955
    5 Stretch                  2     7                       1.38249   -0.01808
    6 Stretch                  2    16                       1.07052   -0.01600
    7 Stretch                  3     4                       1.38781   -0.00545
    8 Stretch                  3    17                       1.07156   -0.01590
    9 Stretch                  4    18                       1.07234   -0.01479
   10 Stretch                  5    12                       1.48725   -0.01206
   11 Stretch                  5    19                       1.08136   -0.01154
   12 Stretch                  5    20                       1.07785   -0.01667
   13 Stretch                  5    21                       1.08182   -0.01060
   14 Stretch                  6     7                       1.39354   -0.00777
   15 Stretch                  6    11                       1.47574   -0.00926
   16 Stretch                  7    13                       1.38937   -0.00757
   17 Stretch                  8    11                       1.21580   -0.00307
   18 Stretch                  9    12                       1.20512   -0.01894
   19 Stretch                 10    11                       1.34987    0.00605
   20 Stretch                 10    14                       0.95477   -0.02586
   21 Stretch                 12    13                       1.36964   -0.02036
   22 Bend                     1     3     4               119.52019   -0.55622
   23 Bend                     1     3    17               120.01920    0.15820
   24 Bend                     1     6     7               118.14141   -0.15567
   25 Bend                     1     6    11               116.00267   -0.52153
   26 Bend                     2     4     3               120.07487    0.17937
   27 Bend                     2     4    18               119.64611   -0.41353
   28 Bend                     2     7     6               120.88516   -0.08843
   29 Bend                     2     7    13               116.24199   -0.03702
   30 Bend                     3     1     6               121.32525    0.49188
   31 Bend                     3     1    15               120.67274    1.70135
   32 Bend                     3     4    18               120.27888    0.23420
   33 Bend                     4     2     7               120.05055    0.14468
   34 Bend                     4     2    16               121.41768    1.58679
   35 Bend                     4     3    17               120.46058    0.39804
   36 Bend                     5    12     9               126.97666    2.63197
   37 Bend                     5    12    13               110.67237    1.91358
   38 Bend                     6     1    15               118.00185   -2.19323
   39 Bend                     6     7    13               122.79092    0.09413
   40 Bend                     6    11     8               123.66829   -1.35165
   41 Bend                     6    11    10               116.15841    1.17779
   42 Bend                     7     2    16               118.53143   -1.73012
   43 Bend                     7     6    11               125.85567    0.67834
   44 Bend                     7    13    12               123.29563   10.77301
   45 Bend                     8    11    10               120.17048    0.17546
   46 Bend                     9    12    13               122.33568   -4.55928
   47 Bend                    11    10    14               112.23239    9.08860
   48 Bend                    12     5    19               109.06891   -0.81910
   49 Bend                    12     5    20               109.75666    0.45940
   50 Bend                    12     5    21               110.01924    0.16723
   51 Bend                    19     5    20               110.18965    1.72436
   52 Bend                    19     5    21               107.78219   -2.90174
   53 Bend                    20     5    21               109.99412    1.37656
   54 Torsion                  1     3     4     2           0.26124   -0.06415
   55 Torsion                  1     3     4    18        -179.87290   -0.04784
   56 Torsion                  1     6     7     2           0.59326   -0.98900
   57 Torsion                  1     6     7    13         177.17685   -1.72072
   58 Torsion                  1     6    11     8           1.22124   -1.73236
   59 Torsion                  1     6    11    10        -178.16790   -1.88930
   60 Torsion                  2     4     3    17        -179.79556   -0.04107
   61 Torsion                  2     7     6    11        -179.21660   -1.24331
   62 Torsion                  2     7    13    12        -109.74700  -13.50359
   63 Torsion                  3     1     6     7          -0.43115    0.32626
   64 Torsion                  3     1     6    11         179.39739    0.56082
   65 Torsion                  3     4     2     7          -0.10052   -0.58944
   66 Torsion                  3     4     2    16        -179.88682    0.09608
   67 Torsion                  4     2     7     6          -0.33591    1.13072
   68 Torsion                  4     2     7    13        -177.13412    1.81294
   69 Torsion                  4     3     1     6           0.01004    0.19518
   70 Torsion                  4     3     1    15         179.86255    0.19170
   71 Torsion                  5    12    13     7        -172.52148    5.06692
   72 Torsion                  6     1     3    17        -179.93341    0.17201
   73 Torsion                  6     7     2    16         179.45651    0.44926
   74 Torsion                  6     7    13    12          73.52169  -12.80200
   75 Torsion                  6    11    10    14        -178.96538    1.17170
   76 Torsion                  7     2     4    18        -179.96723   -0.60663
   77 Torsion                  7     6     1    15         179.71254    0.32417
   78 Torsion                  7     6    11     8        -178.96531   -1.48153
   79 Torsion                  7     6    11    10           1.64555   -1.63847
   80 Torsion                  7    13    12     9           8.80902    5.95702
   81 Torsion                  8    11    10    14           1.62268    1.03373
   82 Torsion                  9    12     5    19        -119.76951    0.77689
   83 Torsion                  9    12     5    20           1.03836    2.66825
   84 Torsion                  9    12     5    21         122.20548    4.75452
   85 Torsion                 11     6     1    15          -0.45893    0.55872
   86 Torsion                 11     6     7    13          -2.63300   -1.97503
   87 Torsion                 13     7     2    16           2.65830    1.13148
   88 Torsion                 13    12     5    19          61.63770    1.75752
   89 Torsion                 13    12     5    20        -177.55443    3.64888
   90 Torsion                 13    12     5    21         -56.38732    5.73515
   91 Torsion                 15     1     3    17          -0.08091    0.16853
   92 Torsion                 16     2     4    18           0.24647    0.07889
   93 Torsion                 17     3     4    18           0.07030   -0.02476

 ==============================================================================
                                internuclear distances
 ------------------------------------------------------------------------------
       center one      |      center two      | atomic units |  angstroms
 ------------------------------------------------------------------------------
    3 C                |   1 C                |     2.61024  |     1.38128
    4 C                |   2 C                |     2.61546  |     1.38404
    4 C                |   3 C                |     2.62259  |     1.38781
    6 C                |   1 C                |     2.63804  |     1.39599
    7 C                |   2 C                |     2.61252  |     1.38249
    7 C                |   6 C                |     2.63342  |     1.39354
   11 C                |   6 C                |     2.78874  |     1.47574
   11 C                |   8 O                |     2.29754  |     1.21580
   11 C                |  10 O                |     2.55088  |     1.34987
   12 C                |   5 C                |     2.81050  |     1.48725
   12 C                |   9 O                |     2.27734  |     1.20512
   13 O                |   7 C                |     2.62553  |     1.38937
   13 O                |  12 C                |     2.58824  |     1.36964
   14 H                |  10 O                |     1.80425  |     0.95477
   15 H                |   1 C                |     2.02311  |     1.07059
   16 H                |   2 C                |     2.02298  |     1.07052
   17 H                |   3 C                |     2.02495  |     1.07156
   18 H                |   4 C                |     2.02642  |     1.07234
   19 H                |   5 C                |     2.04348  |     1.08136
   20 H                |   5 C                |     2.03684  |     1.07785
   21 H                |   5 C                |     2.04435  |     1.08182
 ------------------------------------------------------------------------------
                         number of included internuclear distances:         21
 ==============================================================================



 ==============================================================================
                                 internuclear angles
 ------------------------------------------------------------------------------
        center 1       |       center 2       |       center 3       |  degrees
 ------------------------------------------------------------------------------
    3 C                |   1 C                |   6 C                |   121.33
    3 C                |   1 C                |  15 H                |   120.67
    6 C                |   1 C                |  15 H                |   118.00
    4 C                |   2 C                |   7 C                |   120.05
    4 C                |   2 C                |  16 H                |   121.42
    7 C                |   2 C                |  16 H                |   118.53
    1 C                |   3 C                |   4 C                |   119.52
    1 C                |   3 C                |  17 H                |   120.02
    4 C                |   3 C                |  17 H                |   120.46
    2 C                |   4 C                |   3 C                |   120.07
    2 C                |   4 C                |  18 H                |   119.65
    3 C                |   4 C                |  18 H                |   120.28
   12 C                |   5 C                |  19 H                |   109.07
   12 C                |   5 C                |  20 H                |   109.76
   12 C                |   5 C                |  21 H                |   110.02
   19 H                |   5 C                |  20 H                |   110.19
   19 H                |   5 C                |  21 H                |   107.78
   20 H                |   5 C                |  21 H                |   109.99
    1 C                |   6 C                |   7 C                |   118.14
    1 C                |   6 C                |  11 C                |   116.00
    7 C                |   6 C                |  11 C                |   125.86
    2 C                |   7 C                |   6 C                |   120.89
    2 C                |   7 C                |  13 O                |   116.24
    6 C                |   7 C                |  13 O                |   122.79
   11 C                |  10 O                |  14 H                |   112.23
    6 C                |  11 C                |   8 O                |   123.67
    6 C                |  11 C                |  10 O                |   116.16
    8 O                |  11 C                |  10 O                |   120.17
    5 C                |  12 C                |   9 O                |   126.98
    5 C                |  12 C                |  13 O                |   110.67
    9 O                |  12 C                |  13 O                |   122.34
    7 C                |  13 O                |  12 C                |   123.30
 ------------------------------------------------------------------------------
                            number of included internuclear angles:         32
 ==============================================================================




 Task  times  cpu:      493.4s     wall:      510.8s
 Summary of allocated global arrays
-----------------------------------
  No active global arrays



                         GA Statistics for process    0
                         ------------------------------

       create   destroy   get      put      acc     scatter   gather  read&inc
calls: 7055     7055     7.80e+05 3.49e+05 1.08e+05    0        0     6357     
number of processes/call 1.00e+00 1.00e+00 1.00e+00 0.00e+00 0.00e+00
bytes total:             1.17e+09 6.46e+08 1.92e+08 0.00e+00 0.00e+00 5.09e+04
bytes remote:            0.00e+00 0.00e+00 0.00e+00 0.00e+00 0.00e+00 0.00e+00
Max memory consumed for GA by this process: 2049672 bytes
MA_summarize_allocated_blocks: starting scan ...
MA_summarize_allocated_blocks: scan completed: 0 heap blocks, 0 stack blocks
MA usage statistics:

	allocation statistics:
					      heap	     stack
					      ----	     -----
	current number of blocks	         0	         0
	maximum number of blocks	        18	        28
	current total bytes		         0	         0
	maximum total bytes		     94080	  22512504
	maximum total K-bytes		        95	     22513
	maximum total M-bytes		         1	        23


                                NWChem Input Module
                                -------------------





                                     CITATION
                                     --------
                Please cite the following reference when publishing
                           results obtained with NWChem:

                 M. Valiev, E.J. Bylaska, N. Govind, K. Kowalski,
              T.P. Straatsma, H.J.J. van Dam, D. Wang, J. Nieplocha,
                        E. Apra, T.L. Windus, W.A. de Jong
                 "NWChem: a comprehensive and scalable open-source
                  solution for large scale molecular simulations"
                      Comput. Phys. Commun. 181, 1477 (2010)
                           doi:10.1016/j.cpc.2010.04.018

                              AUTHORS & CONTRIBUTORS
                              ----------------------
          E. Apra, E. J. Bylaska, W. A. de Jong, N. Govind, K. Kowalski,
       T. P. Straatsma, M. Valiev, H. J. J. van Dam, D. Wang, T. L. Windus,
        J. Hammond, J. Autschbach, K. Bhaskaran-Nair, J. Brabec, K. Lopata,
     F. Aquino, S. Hirata, M. T. Hackler, J. Mullin, P. Nichols, R. Peverati,
    J. Pittner, Y. Zhao, P.-D. Fan, R. J. Harrison, M. Dupuis, D. Silverstein,
    D. M. A. Smith, J. Nieplocha, V. Tipparaju, M. Krishnan, B. E. Van Kuiken,
        A. Vazquez-Mayagoitia, L. Jensen, M. Swart, Q. Wu, T. Van Voorhis,
     A. A. Auer, M. Nooijen, L. D. Crosby, E. Brown, G. Cisneros, G. I. Fann,
     H. Fruchtl, J. Garza, K. Hirao, R. Kendall, J. A. Nichols, K. Tsemekhman,
      K. Wolinski, J. Anchell, D. Bernholdt, P. Borowski, T. Clark, D. Clerc,
      H. Dachsel, M. Deegan, K. Dyall, D. Elwood, E. Glendening, M. Gutowski,
      A. Hess, J. Jaffe, B. Johnson, J. Ju, R. Kobayashi, R. Kutteh, Z. Lin,
   R. Littlefield, X. Long, B. Meng, T. Nakajima, S. Niu, L. Pollack, M. Rosing,
   K. Glaesemann, G. Sandrone, M. Stave, H. Taylor, G. Thomas, J. H. van Lenthe,
                                A. Wong, Z. Zhang.

 Total times  cpu:      493.5s     wall:      510.8s
Finished!
Tue Dec 17 19:00:45 GMT 2013
