
                                 *****************
                                 * O   R   C   A *
                                 *****************

           --- An Ab Initio, DFT and Semiempirical electronic structure package ---

                  ######################################################
                  #                        -***-                       #
                  #  Department of molecular theory and spectroscopy   #
                  #              Directorship: Frank Neese             #
                  #   Max Planck Institute for Bioinorganic Chemistry  #
                  #                  D-45470 Muelheim/Ruhr             #
                  #                       Germany                      #
                  #                                                    #
                  #                  All rights reserved               #
                  #                        -***-                       #
                  ######################################################


                         Program Version 2.9.1 -  RELEASE  -


 With contributions from (in alphabetic order):
   Ute Becker             : Parallelization
   Dmitry Ganyushin       : Spin-Orbit,Spin-Spin,Magnetic field MRCI
   Andreas Hansen         : Spin unrestricted coupled pair/coupled cluster methods
   Dimitrios Liakos       : Parallel MDCI
   Robert Izsak           : Overlap fitted RIJCOSX
   Christian Kollmar      : KDIIS, orbital optimized coupled pair methods, Brueckner methods
   Simone Kossmann        : Meta GGA functionals, improved MP2 methods
   Taras Petrenko         : TD-DFT gradient, Resonance Raman, ABS, fluorescence, XAS, NRVS
   Christoph Reimann      : Effective Core Potentials
   Michael Roemelt        : Restricted open shell CI
   Christoph Riplinger    : Improved optimizer, TS searches, QM/MM
   Barbara Sandhoefer     : DKH, picture change effects
   Igor Schapiro          : Molecular dynamics
   Kantharuban Sivalingam : CASSCF and multireference perturbation theory
   Boris Wezisla          : Elementary symmetry handling
   Frank Wennmohs         : Technical directorship


 We gratefully acknowledge several collegues who have allowed us to
 interface, adapt or use parts of their codes:
   Stefan Grimme                                : VdW corrections, initial TS optimization
                                                  and many helpful discussions
   Ed Valeev                                    : LibInt (2-el integral package), F12 methods
   Andreas Klamt, Michael Diedenhofen           : otool_cosmo (COSMO solvation model)
   Frank Weinhold                               : gennbo (NPA and NBO analysis)


 Your calculation uses the libint2 library for the computation of 2-el integrals
 For citations please refer to: http://libint.valeyev.net

Your calculation utilizes the basis: 6-31G
Cite in your paper:
H - He: W.J. Hehre, R. Ditchfield and J.A. Pople, J. Chem. Phys. 56,
Li - Ne: 2257 (1972).  Note: Li and B come from J.D. Dill and J.A.
         Pople, J. Chem. Phys. 62, 2921 (1975).
Na - Ar: M.M. Francl, W.J. Pietro, W.J. Hehre, J.S. Binkley, M.S. Gordon,
         D.J. DeFrees and J.A. Pople, J. Chem. Phys. 77, 3654 (1982)
K  - Zn: V. Rassolov, J.A. Pople, M. Ratner and T.L. Windus, J. Chem. Phys.
         (accepted, 1998)
Note: He and Ne are unpublished basis sets taken from the Gaussian program



*****************************************
The coordinations will be read from file: aspirin.xyz
*****************************************


================================================================================
                                        WARNINGS
                       Please study these warnings very carefully!
================================================================================
Now building the actual basis set

WARNING: Gradients are needed
  ===> : forcing at least TightSCF

WARNING: Geometry Optimization
  ===> : Switching off AutoStart
         For restart on a previous wavefunction, please use MOREAD


INFO   : the flag for use of LIBINT has been found!

================================================================================
                                       INPUT FILE
================================================================================
NAME = /lustre/scratch/tmp/pbs.5855570.nova/orca_aspirin_b3-5855570.nova/aspirin_b3lyp.inp
|  1> ! rks b3lyp/g 6-31g opt
|  2> 
|  3> * xyzfile 0 1 aspirin.xyz **                         ****END OF INPUT****
================================================================================

                       *****************************
                       * Geometry Optimization Run *
                       *****************************

Geometry optimization settings:
Update method            Update   .... BFGS
Choice of coordinates    CoordSys .... Redundant Internals
Initial Hessian          InHess   .... Almoef's Model

Convergence Tolerances:
Energy Change            TolE     ....  5.0000e-06 Eh
Max. Gradient            TolMAXG  ....  3.0000e-04 Eh/bohr
RMS Gradient             TolRMSG  ....  1.0000e-04 Eh/bohr
Max. Displacement        TolMAXD  ....  4.0000e-03 bohr
RMS Displacement         TolRMSD  ....  2.0000e-03 bohr

------------------------------------------------------------------------------
                        ORCA OPTIMIZATION COORDINATE SETUP
------------------------------------------------------------------------------

The optimization will be done in new redundant internal coordinates
Making redundant internal coordinates   ...  (new redundants) done
Evaluating the initial hessian          ...  (Almloef) done
Evaluating the coordinates              ...  done
Calculating the B-matrix                .... done
Calculating the G-matrix                .... done
Diagonalizing the G-matrix              .... done
Small eigenvalue found = 1.141e-02
Small eigenvalue found = 1.718e-02
The first mode is                       ....   36
The number of degrees of freedom        ....   57

    -----------------------------------------------------------------
                    Redundant Internal Coordinates


    -----------------------------------------------------------------
         Definition                    Initial Value    Approx d2E/dq
    -----------------------------------------------------------------
      1. B(C   2,C   0)                  1.3983         0.606025   
      2. B(C   3,C   2)                  1.3933         0.617358   
      3. B(C   3,C   1)                  1.3936         0.616603   
      4. B(C   5,C   0)                  1.4051         0.591045   
      5. B(C   6,C   5)                  1.4013         0.599360   
      6. B(C   6,C   1)                  1.4006         0.601017   
      7. B(C  10,C   5)                  1.4850         0.440740   
      8. B(C  10,O   9)                  1.3438         0.663063   
      9. B(C  10,O   7)                  1.2189         1.049304   
     10. B(C  11,O   8)                  1.2241         1.029502   
     11. B(C  11,C   4)                  1.4993         0.418150   
     12. B(O  12,C  11)                  1.3900         0.559592   
     13. B(O  12,C   6)                  1.3969         0.545512   
     14. B(H  13,O   9)                  0.9806         0.482016   
     15. B(H  14,C   0)                  1.0893         0.361000   
     16. B(H  15,C   1)                  1.0865         0.364742   
     17. B(H  16,C   2)                  1.0875         0.363477   
     18. B(H  17,C   3)                  1.0871         0.363915   
     19. B(H  18,C   4)                  1.0929         0.356274   
     20. B(H  19,C   4)                  1.0945         0.354162   
     21. B(H  20,C   4)                  1.0924         0.356901   
     22. A(C   5,C   0,H  14)          120.1951         0.350215   
     23. A(C   2,C   0,C   5)          120.8334         0.428594   
     24. A(C   2,C   0,H  14)          118.9714         0.351699   
     25. A(C   3,C   1,C   6)          119.9059         0.431220   
     26. A(C   6,C   1,H  15)          120.2616         0.351819   
     27. A(C   3,C   1,H  15)          119.8309         0.353346   
     28. A(C   3,C   2,H  16)          120.0625         0.353212   
     29. A(C   0,C   2,H  16)          119.8610         0.352106   
     30. A(C   0,C   2,C   3)          120.0764         0.431958   
     31. A(C   1,C   3,H  17)          120.0596         0.353210   
     32. A(C   1,C   3,C   2)          119.8955         0.433304   
     33. A(C   2,C   3,H  17)          120.0447         0.353284   
     34. A(H  18,C   4,H  20)          110.6839         0.289946   
     35. A(C  11,C   4,H  20)          109.8520         0.329913   
     36. A(H  18,C   4,H  19)          108.4653         0.289596   
     37. A(C  11,C   4,H  19)          109.2973         0.329493   
     38. A(H  19,C   4,H  20)          108.6176         0.289676   
     39. A(C  11,C   4,H  18)          109.8880         0.329817   
     40. A(C   0,C   5,C  10)          116.5242         0.404977   
     41. A(C   0,C   5,C   6)          118.2971         0.427745   
     42. A(C   6,C   5,C  10)          125.1773         0.405978   
     43. A(C   5,C   6,O  12)          122.6968         0.418917   
     44. A(C   1,C   6,O  12)          116.2790         0.419123   
     45. A(C   1,C   6,C   5)          120.9736         0.429030   
     46. A(C  10,O   9,H  13)          103.1438         0.369568   
     47. A(O   7,C  10,O   9)          119.9950         0.477192   
     48. A(C   5,C  10,O   9)          114.9806         0.410639   
     49. A(C   5,C  10,O   7)          125.0199         0.445853   
     50. A(C   4,C  11,O  12)          108.7588         0.394858   
     51. A(C   4,C  11,O   8)          124.3447         0.440111   
     52. A(O   8,C  11,O  12)          126.8950         0.460960   
     53. A(C   6,O  12,C  11)          112.5226         0.411157   
     54. D(C   3,C   2,C   0,H  14)    179.6708         0.025346   
     55. D(H  16,C   2,C   0,C   5)    179.8946         0.025346   
     56. D(H  16,C   2,C   0,H  14)     -0.2494         0.025346   
     57. D(C   3,C   2,C   0,C   5)     -0.1851         0.025346   
     58. D(H  17,C   3,C   1,C   6)   -179.3606         0.026291   
     59. D(C   1,C   3,C   2,H  16)   -179.7545         0.026360   
     60. D(C   2,C   3,C   1,C   6)      0.4889         0.026291   
     61. D(H  17,C   3,C   2,H  16)      0.0951         0.026360   
     62. D(H  17,C   3,C   2,C   0)   -179.8251         0.026360   
     63. D(C   2,C   3,C   1,H  15)   -179.9829         0.026291   
     64. D(H  17,C   3,C   1,H  15)      0.1676         0.026291   
     65. D(C   1,C   3,C   2,C   0)      0.3254         0.026360   
     66. D(C   6,C   5,C   0,H  14)    179.3884         0.024045   
     67. D(C  10,C   5,C   0,C   2)    178.8366         0.024045   
     68. D(C   6,C   5,C   0,C   2)     -0.7574         0.024045   
     69. D(C  10,C   5,C   0,H  14)     -1.0177         0.024045   
     70. D(O  12,C   6,C   5,C  10)     -0.6580         0.024762   
     71. D(C   1,C   6,C   5,C  10)   -177.9733         0.024762   
     72. D(C   1,C   6,C   5,C   0)      1.5823         0.024762   
     73. D(O  12,C   6,C   1,H  15)      1.5268         0.024906   
     74. D(O  12,C   6,C   1,C   3)   -178.9471         0.024906   
     75. D(O  12,C   6,C   5,C   0)    178.8976         0.024762   
     76. D(C   5,C   6,C   1,H  15)    179.0072         0.024906   
     77. D(C   5,C   6,C   1,C   3)     -1.4666         0.024906   
     78. D(O   7,C  10,O   9,H  13)      0.5890         0.032601   
     79. D(C   5,C  10,O   9,H  13)    179.8629         0.032601   
     80. D(O   9,C  10,C   5,C   6)      3.2840         0.013253   
     81. D(O   9,C  10,C   5,C   0)   -176.2786         0.013253   
     82. D(O   7,C  10,C   5,C   6)   -177.4838         0.013253   
     83. D(O   7,C  10,C   5,C   0)      2.9536         0.013253   
     84. D(O   8,C  11,C   4,H  18)   -120.5464         0.012933   
     85. D(O  12,C  11,C   4,H  20)    -62.1225         0.012933   
     86. D(O  12,C  11,C   4,H  19)    178.7967         0.012933   
     87. D(O  12,C  11,C   4,H  18)     59.8802         0.012933   
     88. D(O   8,C  11,C   4,H  20)    117.4510         0.012933   
     89. D(O   8,C  11,C   4,H  19)     -1.6299         0.012933   
     90. D(C   6,O  12,C  11,O   8)      2.8520         0.022686   
     91. D(C   6,O  12,C  11,C   4)   -177.5884         0.022686   
     92. D(C  11,O  12,C   6,C   5)     86.3237         0.021507   
     93. D(C  11,O  12,C   6,C   1)    -96.2434         0.021507   
    -----------------------------------------------------------------

Number of atoms                         .... 21
Number of degrees of freedom            .... 93

         *************************************************************
         *                GEOMETRY OPTIMIZATION CYCLE   1            *
         *************************************************************
---------------------------------
CARTESIAN COORDINATES (ANGSTROEM)
---------------------------------
  C      2.056390   -0.165430    0.397270
  C      0.688900    2.028540   -0.648160
  C      2.740710    1.023270    0.125330
  C      2.057340    2.117820   -0.400160
  C     -3.593960    1.032090    0.045890
  C      0.677380   -0.275070    0.150970
  C      0.002740    0.842340   -0.358870
  O      0.632930   -2.545260    0.933600
  O     -1.764520    1.432520    1.565710
  O     -1.248940   -1.684110    0.129750
  C      0.052780   -1.588810    0.449580
  C     -2.151990    1.128410    0.445130
  O     -1.361670    0.828320   -0.658250
  H     -1.476520   -2.601110    0.392320
  H      2.609480   -1.011730    0.802840
  H      0.157080    2.882660   -1.058230
  H      3.807770    1.091260    0.323640
  H      2.590440    3.040810   -0.614050
  H     -3.816400    0.020490   -0.302870
  H     -4.224800    1.245910    0.914400
  H     -3.812960    1.765760   -0.733320

----------------------------
CARTESIAN COORDINATES (A.U.)
----------------------------
  NO LB      ZA    FRAG    MASS        X           Y           Z
   0 C     6.0000    0    12.011    3.886014   -0.312617    0.750732
   1 C     6.0000    0    12.011    1.301832    3.833385   -1.224845
   2 C     6.0000    0    12.011    5.179191    1.933700    0.236839
   3 C     6.0000    0    12.011    3.887809    4.002100   -0.756193
   4 C     6.0000    0    12.011   -6.791600    1.950367    0.086720
   5 C     6.0000    0    12.011    1.280063   -0.519807    0.285292
   6 C     6.0000    0    12.011    0.005178    1.591792   -0.678166
   7 O     8.0000    0    15.999    1.196064   -4.809844    1.764248
   8 O     8.0000    0    15.999   -3.334460    2.707070    2.958763
   9 O     8.0000    0    15.999   -2.360155   -3.182507    0.245192
  10 C     6.0000    0    12.011    0.099740   -3.002416    0.849583
  11 C     6.0000    0    12.011   -4.066672    2.132386    0.841174
  12 O     8.0000    0    15.999   -2.573183    1.565298   -1.243912
  13 H     1.0000    0     1.008   -2.790218   -4.915386    0.741377
  14 H     1.0000    0     1.008    4.931203   -1.911893    1.517148
  15 H     1.0000    0     1.008    0.296838    5.447438   -1.999765
  16 H     1.0000    0     1.008    7.195642    2.062183    0.611591
  17 H     1.0000    0     1.008    4.895222    5.746298   -1.160386
  18 H     1.0000    0     1.008   -7.211951    0.038720   -0.572341
  19 H     1.0000    0     1.008   -7.983715    2.354429    1.727966
  20 H     1.0000    0     1.008   -7.205450    3.336803   -1.385774

--------------------------------
INTERNAL COORDINATES (ANGSTROEM)
--------------------------------
 C      0   0   0   0.000000     0.000     0.000
 C      1   0   0   2.788630     0.000     0.000
 C      1   2   0   1.398304    59.885     0.000
 C      3   1   2   1.393260   120.076   359.837
 C      2   1   3   4.451686   103.723   195.319
 C      1   2   3   1.405117    60.949   179.978
 C      2   1   3   1.400562    59.766   180.816
 O      6   1   2   2.401718    91.994   180.042
 O      5   2   1   2.411856    48.035    63.797
 O      8   6   1   2.220178    62.035   183.121
 C      8   6   1   1.218871    30.422   182.644
 C      9   5   2   1.224057    30.882   339.065
 O     12   9   5   1.390003   126.895   179.495
 H     10   8   6   0.980625    74.755   180.134
 H      1   2   3   1.089321   178.847   352.755
 H      2   1   3   1.086513   179.842    80.621
 H      3   1   2   1.087459   119.861   179.917
 H      4   3   1   1.087132   120.045   180.175
 H      5   2   1   1.092908   110.686   310.695
 H      5   2   1   1.094526   129.382    89.110
 H      5   2   1   1.092429    86.063   200.057

---------------------------
INTERNAL COORDINATES (A.U.)
---------------------------
 C      0   0   0   0.000000     0.000     0.000
 C      1   0   0   5.269747     0.000     0.000
 C      1   2   0   2.642411    59.885     0.000
 C      3   1   2   2.632880   120.076   359.837
 C      2   1   3   8.412467   103.723   195.319
 C      1   2   3   2.655286    60.949   179.978
 C      2   1   3   2.646679    59.766   180.816
 O      6   1   2   4.538589    91.994   180.042
 O      5   2   1   4.557747    48.035    63.797
 O      8   6   1   4.195528    62.035   183.121
 C      8   6   1   2.303332    30.422   182.644
 C      9   5   2   2.313132    30.882   339.065
 O     12   9   5   2.626724   126.895   179.495
 H     10   8   6   1.853112    74.755   180.134
 H      1   2   3   2.058518   178.847   352.755
 H      2   1   3   2.053212   179.842    80.621
 H      3   1   2   2.054999   119.861   179.917
 H      4   3   1   2.054381   120.045   180.175
 H      5   2   1   2.065297   110.686   310.695
 H      5   2   1   2.068355   129.382    89.110
 H      5   2   1   2.064391    86.063   200.057

---------------------
BASIS SET INFORMATION
---------------------
There are 3 groups of distinct atoms

 Group   1 Type C   : 10s4p contracted to 3s2p pattern {631/31}
 Group   2 Type O   : 10s4p contracted to 3s2p pattern {631/31}
 Group   3 Type H   : 4s contracted to 2s pattern {31}

Atom   0C    basis set group =>   1
Atom   1C    basis set group =>   1
Atom   2C    basis set group =>   1
Atom   3C    basis set group =>   1
Atom   4C    basis set group =>   1
Atom   5C    basis set group =>   1
Atom   6C    basis set group =>   1
Atom   7O    basis set group =>   2
Atom   8O    basis set group =>   2
Atom   9O    basis set group =>   2
Atom  10C    basis set group =>   1
Atom  11C    basis set group =>   1
Atom  12O    basis set group =>   2
Atom  13H    basis set group =>   3
Atom  14H    basis set group =>   3
Atom  15H    basis set group =>   3
Atom  16H    basis set group =>   3
Atom  17H    basis set group =>   3
Atom  18H    basis set group =>   3
Atom  19H    basis set group =>   3
Atom  20H    basis set group =>   3
------------------------------------------------------------------------------
                           ORCA GTO INTEGRAL CALCULATION
------------------------------------------------------------------------------

                         BASIS SET STATISTICS AND STARTUP INFO

 # of primitive gaussian shells          ...  214
 # of primitive gaussian functions       ...  318
 # of contracted shell                   ...   81
 # of contracted basis functions         ...  133
 Highest angular momentum                ...    1
 Maximum contraction depth               ...    6
 Integral package used                   ... LIBINT
 Integral threshhold             Thresh  ...  2.500e-11
 Primitive cut-off               TCut    ...  2.500e-12


                              INTEGRAL EVALUATION

 One electron integrals                  ... done
 Pre-screening matrix                    ... done
 Shell pair data                         ... done (   0.002 sec)

-------------------------------------------------------------------------------
                                 ORCA SCF
-------------------------------------------------------------------------------

------------
SCF SETTINGS
------------
Hamiltonian:
 Density Functional     Method          .... DFT(GTOs)
 Exchange Functional    Exchange        .... B88
   X-Alpha parameter    XAlpha          ....  0.666667
   Becke's b parameter  XBeta           ....  0.004200
 Correlation Functional Correlation     .... LYP
 LDA part of GGA corr.  LDAOpt          .... VWN-3
 Gradients option       PostSCFGGA      .... off
 Hybrid DFT is turned on
   Fraction HF Exchange ScalHFX         ....  0.200000
   Scaling of DF-GGA-X  ScalDFX         ....  0.720000
   Scaling of DF-GGA-C  ScalDFC         ....  0.810000
   Scaling of DF-LDA-C  ScalLDAC        ....  1.000000
   Perturbative correction              ....  0.000000


General Settings:
 Integral files         IntName         .... /lustre/scratch/tmp/pbs.5855570.nova/orca_aspirin_b3-5855570.nova/aspirin_b3lyp
 Hartree-Fock type      HFTyp           .... RHF
 Total Charge           Charge          ....    0
 Multiplicity           Mult            ....    1
 Number of Electrons    NEL             ....   94
 Basis Dimension        Dim             ....  133
 Nuclear Repulsion      ENuc            ....    782.6611615805 Eh

Convergence Acceleration:
 DIIS                   CNVDIIS         .... on
   Start iteration      DIISMaxIt       ....    12
   Startup error        DIISStart       ....  0.200000
   # of expansion vecs  DIISMaxEq       ....     5
   Bias factor          DIISBfac        ....   1.050
   Max. coefficient     DIISMaxC        ....  10.000
 Newton-Raphson         CNVNR           .... off
 SOSCF                  CNVSOSCF        .... on
   Start iteration      SOSCFMaxIt      ....   150
   Startup grad/error   SOSCFStart      ....  0.003300
 Level Shifting         CNVShift        .... on
   Level shift para.    LevelShift      ....    0.2500
   Turn off err/grad.   ShiftErr        ....    0.0010
 Zerner damping         CNVZerner       .... off
 Static damping         CNVDamp         .... on
   Fraction old density DampFac         ....    0.7000
   Max. Damping (<1)    DampMax         ....    0.9800
   Min. Damping (>=0)   DampMin         ....    0.0000
   Turn off err/grad.   DampErr         ....    0.1000
 Fernandez-Rico         CNVRico         .... off

SCF Procedure:
 Maximum # iterations   MaxIter         ....   125
 SCF integral mode      SCFMode         .... Direct
   Integral package                     .... LIBINT
 Reset frequeny         DirectResetFreq ....    20
 Integral Threshold     Thresh          ....  2.500e-11 Eh
 Primitive CutOff       TCut            ....  2.500e-12 Eh

Convergence Tolerance:
 Convergence Check Mode ConvCheckMode   .... Total+1el-Energy
 Energy Change          TolE            ....  1.000e-08 Eh
 1-El. energy change                    ....  1.000e-05 Eh
 Orbital Gradient       TolG            ....  1.000e-05
 Orbital Rotation angle TolX            ....  1.000e-05
 DIIS Error             TolErr          ....  5.000e-07


Diagonalization of the overlap matrix:
Smallest eigenvalue                        ... 5.374e-04
Time for diagonalization                   ...    0.028 sec
Time for construction of square roots      ...    0.005 sec
Total time needed                          ...    0.033 sec

-------------------
DFT GRID GENERATION
-------------------

General Integration Accuracy     IntAcc      ...  4.340
Radial Grid Type                 RadialGrid  ... Gauss-Chebyshev
Angular Grid (max. acc.)         AngularGrid ... Lebedev-110
Angular grid pruning method      GridPruning ... 3 (G Style)
Weight generation scheme         WeightScheme... Becke
Basis function cutoff            BFCut       ...    1.0000e-11
Integration weight cutoff        WCut        ...    1.0000e-14
Grids for H and He will be reduced by one unit

# of grid points (after initial pruning)     ...  28120 (   0.0 sec)
# of grid points (after weights+screening)   ...  25848 (   0.3 sec)
nearest neighbour list constructed           ...    0.0 sec
Grid point re-assignment to atoms done       ...    0.0 sec
Grid point division into batches done        ...    0.0 sec
Reduced shell lists constructed in    0.5 sec

Total number of grid points                  ...    25848
Total number of batches                      ...      414
Average number of points per batch           ...       62
Average number of grid points per atom       ...     1231
Average number of shells per batch           ...    50.68 (62.56%)
Average number of basis functions per batch  ...    89.64 (67.40%)
Average number of large shells per batch     ...    36.34 (71.71%)
Average number of large basis fcns per batch ...    65.84 (73.45%)
Maximum spatial batch extension              ...  17.55, 19.49, 25.60 au
Average spatial batch extension              ...   3.29,  3.47,  3.93 au

Time for grid setup =    0.861 sec

------------------------------
INITIAL GUESS: MODEL POTENTIAL
------------------------------
Loading Hartree-Fock densities                     ... done
Calculating cut-offs                               ... done
Setting up the integral package                    ... done
Initializing the effective Hamiltonian             ... done
Starting the Coulomb interaction                   ... done (   0.2 sec)
Reading the grid                                   ... done
Mapping shells                                     ... done
Starting the XC term evaluation                    ... done (   1.5 sec)
  promolecular density results
     # of electrons  =     93.995068301
     EX              =    -81.421450878
     EC              =     -3.253784450
     EX+EC           =    -84.675235328
Transforming the Hamiltonian                       ... done (   0.0 sec)
Diagonalizing the Hamiltonian                      ... done (   0.0 sec)
Back transforming the eigenvectors                 ... done (   0.0 sec)
Now organizing SCF variables                       ... done
                      ------------------
                      INITIAL GUESS DONE (   1.9 sec)
                      ------------------
--------------
SCF ITERATIONS
--------------
ITER       Energy         Delta-E        Max-DP      RMS-DP      [F,P]     Damp
               ***  Starting incremental Fock matrix formation  ***
  0   -648.0746690315   0.000000000000 0.11258421  0.00490721  0.2714410 0.7000
  1   -648.2766903208  -0.202021289353 0.06154757  0.00283872  0.0973933 0.7000
                               ***Turning on DIIS***
  2   -648.3423118860  -0.065621565164 0.06434474  0.00376909  0.0420455 0.0000
  3   -648.4645945265  -0.122282640490 0.03888905  0.00187961  0.0546861 0.0000
  4   -648.4836127948  -0.019018268375 0.01264351  0.00067916  0.0211082 0.0000
  5   -648.4863925098  -0.002779714992 0.00327727  0.00019944  0.0035296 0.0000
                      *** Initiating the SOSCF procedure ***
                           *** Shutting down DIIS ***
                      *** Re-Reading the Fockian *** 
                      *** Removing any level shift *** 
ITER      Energy       Delta-E        Grad      Rot      Max-DP    RMS-DP
  6   -648.48648372  -0.0000912150  0.000392  0.000392  0.001529  0.000064
               *** Restarting incremental Fock matrix formation ***
  7   -648.48649725  -0.0000135281  0.000148  0.000721  0.000695  0.000032
  8   -648.48649736  -0.0000001114  0.000157  0.000287  0.000375  0.000016
  9   -648.48649831  -0.0000009425  0.000111  0.000254  0.000336  0.000010
 10   -648.48649821   0.0000000924  0.000122  0.000137  0.000217  0.000006
 11   -648.48649844  -0.0000002256  0.000016  0.000043  0.000086  0.000003
 12   -648.48649842   0.0000000156  0.000024  0.000026  0.000051  0.000002
 13   -648.48649845  -0.0000000270  0.000005  0.000016  0.000023  0.000001
 14   -648.48649845   0.0000000007  0.000010  0.000011  0.000016  0.000000
                  ***Gradient check signals convergence***
              ***Rediagonalizing the Fockian in SOSCF/NRSCF***

               *****************************************************
               *                     SUCCESS                       *
               *           SCF CONVERGED AFTER  15 CYCLES          *
               *****************************************************

Setting up the final grid:

General Integration Accuracy     IntAcc      ...  4.670
Radial Grid Type                 RadialGrid  ... Gauss-Chebyshev
Angular Grid (max. acc.)         AngularGrid ... Lebedev-302
Angular grid pruning method      GridPruning ... 3 (G Style)
Weight generation scheme         WeightScheme... Becke
Basis function cutoff            BFCut       ...    1.0000e-11
Integration weight cutoff        WCut        ...    1.0000e-14
Grids for H and He will be reduced by one unit

# of grid points (after initial pruning)     ... 107908 (   0.1 sec)
# of grid points (after weights+screening)   ...  97468 (   1.4 sec)
nearest neighbour list constructed           ...    0.0 sec
Grid point re-assignment to atoms done       ...    0.0 sec
Grid point division into batches done        ...    0.3 sec
Reduced shell lists constructed in    2.1 sec

Total number of grid points                  ...    97468
Total number of batches                      ...     1534
Average number of points per batch           ...       63
Average number of grid points per atom       ...     4641
Average number of shells per batch           ...    45.97 (56.75%)
Average number of basis functions per batch  ...    81.64 (61.38%)
Average number of large shells per batch     ...    32.33 (70.32%)
Average number of large basis fcns per batch ...    58.81 (72.03%)
Maximum spatial batch extension              ...  18.32, 19.16, 21.17 au
Average spatial batch extension              ...   2.30,  2.39,  2.56 au

Final grid set up in    3.5 sec
Final integration                            ... done (   1.6 sec)
Change in XC energy                          ...    -0.000024359
Integrated number of electrons               ...    93.999997540
Previous integrated no of electrons          ...    94.000873294

----------------
TOTAL SCF ENERGY
----------------

Total Energy       :         -648.48652281 Eh          -17646.21540 eV

Components:
Nuclear Repulsion  :          782.66116158 Eh           21297.29294 eV
Electronic Energy  :        -1431.14768439 Eh          -38943.50834 eV

One Electron Energy:        -2436.35794682 Eh          -66296.67019 eV
Two Electron Energy:         1005.21026243 Eh           27353.16185 eV

Virial components:
Potential Energy   :        -1293.65111607 Eh          -35202.03651 eV
Kinetic Energy     :          645.16459326 Eh           17555.82110 eV
Virial Ratio       :            2.00514896


DFT components:
N(Alpha)           :       46.999998770058 electrons
N(Beta)            :       46.999998770058 electrons
N(Total)           :       93.999997540116 electrons
E(X)               :      -65.540267517018 Eh       
E(C)               :       -4.180973344773 Eh       
E(XC)              :      -69.721240861791 Eh       

---------------
SCF CONVERGENCE
---------------

  Last Energy change         ...   -1.0006e-09  Tolerance :   1.0000e-08
  Last MAX-Density change    ...    5.9162e-06  Tolerance :   1.0000e-07
  Last RMS-Density change    ...    2.1843e-07  Tolerance :   5.0000e-09
  Last Orbital Gradient      ...    9.6204e-07  Tolerance :   1.0000e-05
  Last Orbital Rotation      ...    3.0797e-06  Tolerance :   1.0000e-05

             **** THE GBW FILE WAS UPDATED (/lustre/scratch/tmp/pbs.5855570.nova/orca_aspirin_b3-5855570.nova/aspirin_b3lyp.gbw) ****
             **** DENSITY FILE WAS UPDATED (/lustre/scratch/tmp/pbs.5855570.nova/orca_aspirin_b3-5855570.nova/aspirin_b3lyp.scfp.tmp) ****
             **** ENERGY FILE WAS UPDATED (/lustre/scratch/tmp/pbs.5855570.nova/orca_aspirin_b3-5855570.nova/aspirin_b3lyp.en.tmp) ****
----------------
ORBITAL ENERGIES
----------------

  NO   OCC          E(Eh)            E(eV) 
   0   2.0000     -19.207992      -522.6760 
   1   2.0000     -19.204671      -522.5857 
   2   2.0000     -19.154170      -521.2115 
   3   2.0000     -19.150478      -521.1110 
   4   2.0000     -10.339365      -281.3484 
   5   2.0000     -10.335772      -281.2507 
   6   2.0000     -10.273404      -279.5535 
   7   2.0000     -10.225054      -278.2379 
   8   2.0000     -10.212103      -277.8854 
   9   2.0000     -10.211101      -277.8582 
  10   2.0000     -10.208726      -277.7936 
  11   2.0000     -10.205296      -277.7002 
  12   2.0000     -10.193345      -277.3750 
  13   2.0000      -1.145806       -31.1790 
  14   2.0000      -1.129932       -30.7470 
  15   2.0000      -1.049673       -28.5630 
  16   2.0000      -1.041303       -28.3353 
  17   2.0000      -0.883530       -24.0421 
  18   2.0000      -0.794044       -21.6070 
  19   2.0000      -0.784848       -21.3568 
  20   2.0000      -0.748229       -20.3603 
  21   2.0000      -0.683649       -18.6030 
  22   2.0000      -0.648605       -17.6495 
  23   2.0000      -0.614279       -16.7154 
  24   2.0000      -0.591145       -16.0859 
  25   2.0000      -0.533129       -14.5072 
  26   2.0000      -0.513455       -13.9718 
  27   2.0000      -0.497708       -13.5433 
  28   2.0000      -0.493178       -13.4201 
  29   2.0000      -0.480050       -13.0628 
  30   2.0000      -0.475726       -12.9452 
  31   2.0000      -0.465731       -12.6732 
  32   2.0000      -0.460927       -12.5425 
  33   2.0000      -0.451852       -12.2955 
  34   2.0000      -0.413695       -11.2572 
  35   2.0000      -0.410517       -11.1707 
  36   2.0000      -0.407047       -11.0763 
  37   2.0000      -0.396367       -10.7857 
  38   2.0000      -0.382386       -10.4053 
  39   2.0000      -0.372234       -10.1290 
  40   2.0000      -0.368636       -10.0311 
  41   2.0000      -0.327505        -8.9119 
  42   2.0000      -0.315834        -8.5943 
  43   2.0000      -0.290921        -7.9164 
  44   2.0000      -0.284126        -7.7315 
  45   2.0000      -0.275572        -7.4987 
  46   2.0000      -0.265601        -7.2274 
  47   0.0000      -0.060157        -1.6370 
  48   0.0000      -0.019596        -0.5332 
  49   0.0000      -0.008613        -0.2344 
  50   0.0000       0.043257         1.1771 
  51   0.0000       0.063861         1.7378 
  52   0.0000       0.084908         2.3105 
  53   0.0000       0.110351         3.0028 
  54   0.0000       0.131852         3.5879 
  55   0.0000       0.138753         3.7756 
  56   0.0000       0.151095         4.1115 
  57   0.0000       0.159743         4.3468 
  58   0.0000       0.167300         4.5525 
  59   0.0000       0.175140         4.7658 
  60   0.0000       0.185771         5.0551 
  61   0.0000       0.217967         5.9312 
  62   0.0000       0.234145         6.3714 
  63   0.0000       0.242914         6.6100 
  64   0.0000       0.261651         7.1199 
  65   0.0000       0.284467         7.7407 
  66   0.0000       0.316404         8.6098 
  67   0.0000       0.319641         8.6979 
  68   0.0000       0.346362         9.4250 
  69   0.0000       0.362176         9.8553 
  70   0.0000       0.393393        10.7048 
  71   0.0000       0.491272        13.3682 
  72   0.0000       0.498525        13.5655 
  73   0.0000       0.508308        13.8318 
  74   0.0000       0.531521        14.4634 
  75   0.0000       0.539472        14.6798 
  76   0.0000       0.550752        14.9867 
  77   0.0000       0.564739        15.3673 
  78   0.0000       0.577808        15.7230 
  79   0.0000       0.582754        15.8575 
  80   0.0000       0.589059        16.0291 
  81   0.0000       0.600970        16.3532 
  82   0.0000       0.612404        16.6644 
  83   0.0000       0.621338        16.9075 
  84   0.0000       0.628884        17.1128 
  85   0.0000       0.632616        17.2143 
  86   0.0000       0.645112        17.5544 
  87   0.0000       0.650357        17.6971 
  88   0.0000       0.662567        18.0294 
  89   0.0000       0.682202        18.5636 
  90   0.0000       0.690414        18.7871 
  91   0.0000       0.733113        19.9490 
  92   0.0000       0.757763        20.6198 
  93   0.0000       0.783070        21.3084 
  94   0.0000       0.802689        21.8423 
  95   0.0000       0.814046        22.1513 
  96   0.0000       0.823019        22.3955 
  97   0.0000       0.848948        23.1010 
  98   0.0000       0.853736        23.2313 
  99   0.0000       0.877686        23.8830 
 100   0.0000       0.887972        24.1629 
 101   0.0000       0.902422        24.5561 
 102   0.0000       0.924445        25.1554 
 103   0.0000       0.931274        25.3413 
 104   0.0000       0.947241        25.7757 
 105   0.0000       0.951578        25.8938 
 106   0.0000       0.961858        26.1735 
 107   0.0000       0.978424        26.6243 
 108   0.0000       0.978901        26.6372 
 109   0.0000       0.995637        27.0927 
 110   0.0000       1.022085        27.8123 
 111   0.0000       1.035014        28.1642 
 112   0.0000       1.050019        28.5725 
 113   0.0000       1.082128        29.4462 
 114   0.0000       1.109868        30.2010 
 115   0.0000       1.121169        30.5086 
 116   0.0000       1.130582        30.7647 
 117   0.0000       1.174025        31.9468 
 118   0.0000       1.202365        32.7180 
 119   0.0000       1.209619        32.9154 
 120   0.0000       1.248007        33.9600 
 121   0.0000       1.289414        35.0867 
 122   0.0000       1.327849        36.1326 
 123   0.0000       1.411711        38.4146 
 124   0.0000       1.439872        39.1809 
 125   0.0000       1.461572        39.7714 
 126   0.0000       1.486573        40.4517 
 127   0.0000       1.572736        42.7963 
 128   0.0000       1.777533        48.3691 
 129   0.0000       1.817692        49.4619 
 130   0.0000       1.911157        52.0052 
 131   0.0000       2.083404        56.6923 
 132   0.0000       2.116591        57.5954 

                    ********************************
                    * MULLIKEN POPULATION ANALYSIS *
                    ********************************

-----------------------
MULLIKEN ATOMIC CHARGES
-----------------------
   0 C :   -0.160582
   1 C :   -0.099409
   2 C :   -0.118905
   3 C :   -0.116045
   4 C :   -0.456642
   5 C :    0.129938
   6 C :    0.226087
   7 O :   -0.395225
   8 O :   -0.390898
   9 O :   -0.537410
  10 C :    0.400118
  11 C :    0.501756
  12 O :   -0.512621
  13 H :    0.386135
  14 H :    0.178225
  15 H :    0.146287
  16 H :    0.142633
  17 H :    0.143289
  18 H :    0.185615
  19 H :    0.172682
  20 H :    0.174973
Sum of atomic charges:   -0.0000000

--------------------------------
MULLIKEN REDUCED ORBITAL CHARGES
--------------------------------
  0 C s       :     3.228483  s :     3.228483
      pz      :     0.957832  p :     2.932099
      px      :     0.971577
      py      :     1.002689
  1 C s       :     3.194758  s :     3.194758
      pz      :     1.010743  p :     2.904651
      px      :     0.935485
      py      :     0.958423
  2 C s       :     3.198933  s :     3.198933
      pz      :     0.988317  p :     2.919973
      px      :     1.011198
      py      :     0.920458
  3 C s       :     3.202512  s :     3.202512
      pz      :     0.961223  p :     2.913533
      px      :     0.952384
      py      :     0.999926
  4 C s       :     3.340164  s :     3.340164
      pz      :     1.086083  p :     3.116478
      px      :     0.930559
      py      :     1.099835
  5 C s       :     3.140342  s :     3.140342
      pz      :     1.021465  p :     2.729720
      px      :     0.861243
      py      :     0.847012
  6 C s       :     3.143166  s :     3.143166
      pz      :     0.975839  p :     2.630746
      px      :     0.636403
      py      :     1.018504
  7 O s       :     3.930728  s :     3.930728
      pz      :     1.402253  p :     4.464497
      px      :     1.628693
      py      :     1.433552
  8 O s       :     3.950862  s :     3.950862
      pz      :     1.336884  p :     4.440036
      px      :     1.719003
      py      :     1.384150
  9 O s       :     3.924535  s :     3.924535
      pz      :     1.763899  p :     4.612875
      px      :     1.391951
      py      :     1.457026
 10 C s       :     2.950837  s :     2.950837
      pz      :     0.849520  p :     2.649045
      px      :     0.781593
      py      :     1.017932
 11 C s       :     3.009784  s :     3.009784
      pz      :     0.735562  p :     2.488461
      px      :     0.937753
      py      :     0.815145
 12 O s       :     3.951216  s :     3.951216
      pz      :     1.544254  p :     4.561405
      px      :     1.270060
      py      :     1.747091
 13 H s       :     0.613865  s :     0.613865
 14 H s       :     0.821775  s :     0.821775
 15 H s       :     0.853713  s :     0.853713
 16 H s       :     0.857367  s :     0.857367
 17 H s       :     0.856711  s :     0.856711
 18 H s       :     0.814385  s :     0.814385
 19 H s       :     0.827318  s :     0.827318
 20 H s       :     0.825027  s :     0.825027


                     *******************************
                     * LOEWDIN POPULATION ANALYSIS *
                     *******************************

----------------------
LOEWDIN ATOMIC CHARGES
----------------------
   0 C :   -0.070505
   1 C :   -0.120007
   2 C :   -0.114597
   3 C :   -0.086927
   4 C :   -0.344927
   5 C :   -0.082740
   6 C :    0.132978
   7 O :   -0.286981
   8 O :   -0.263089
   9 O :   -0.308043
  10 C :    0.236300
  11 C :    0.264465
  12 O :   -0.207226
  13 H :    0.303313
  14 H :    0.143698
  15 H :    0.132966
  16 H :    0.125480
  17 H :    0.125708
  18 H :    0.145627
  19 H :    0.133916
  20 H :    0.140589

-------------------------------
LOEWDIN REDUCED ORBITAL CHARGES
-------------------------------
  0 C s       :     2.944460  s :     2.944460
      pz      :     0.972820  p :     3.126046
      px      :     1.064112
      py      :     1.089114
  1 C s       :     2.946211  s :     2.946211
      pz      :     1.024527  p :     3.173795
      px      :     1.082334
      py      :     1.066934
  2 C s       :     2.941091  s :     2.941091
      pz      :     1.010638  p :     3.173506
      px      :     1.094394
      py      :     1.068474
  3 C s       :     2.943870  s :     2.943870
      pz      :     0.980153  p :     3.143057
      px      :     1.078983
      py      :     1.083921
  4 C s       :     2.996521  s :     2.996521
      pz      :     1.145122  p :     3.348407
      px      :     1.058182
      py      :     1.145103
  5 C s       :     2.914282  s :     2.914282
      pz      :     1.049665  p :     3.168458
      px      :     1.078042
      py      :     1.040751
  6 C s       :     2.895908  s :     2.895908
      pz      :     1.001958  p :     2.971114
      px      :     0.873696
      py      :     1.095460
  7 O s       :     3.626259  s :     3.626259
      pz      :     1.430491  p :     4.660723
      px      :     1.704258
      py      :     1.525974
  8 O s       :     3.635446  s :     3.635446
      pz      :     1.449018  p :     4.627643
      px      :     1.779505
      py      :     1.399120
  9 O s       :     3.586650  s :     3.586650
      pz      :     1.769693  p :     4.721392
      px      :     1.452346
      py      :     1.499353
 10 C s       :     2.889417  s :     2.889417
      pz      :     0.879238  p :     2.874283
      px      :     0.938483
      py      :     1.056561
 11 C s       :     2.911801  s :     2.911801
      pz      :     0.970912  p :     2.823735
      px      :     1.018427
      py      :     0.834396
 12 O s       :     3.546785  s :     3.546785
      pz      :     1.589478  p :     4.660441
      px      :     1.309060
      py      :     1.761902
 13 H s       :     0.696687  s :     0.696687
 14 H s       :     0.856302  s :     0.856302
 15 H s       :     0.867034  s :     0.867034
 16 H s       :     0.874520  s :     0.874520
 17 H s       :     0.874292  s :     0.874292
 18 H s       :     0.854373  s :     0.854373
 19 H s       :     0.866084  s :     0.866084
 20 H s       :     0.859411  s :     0.859411


                      *****************************
                      * MAYER POPULATION ANALYSIS *
                      *****************************

  NA   - Mulliken gross atomic population
  ZA   - Total nuclear charge
  QA   - Mulliken gross atomic charge
  VA   - Mayer's total valence
  BVA  - Mayer's bonded valence
  FA   - Mayer's free valence

  ATOM       NA         ZA         QA         VA         BVA        FA
  0 C      6.1606     6.0000    -0.1606     3.8912     3.8912    -0.0000
  1 C      6.0994     6.0000    -0.0994     3.8579     3.8579    -0.0000
  2 C      6.1189     6.0000    -0.1189     3.8675     3.8675    -0.0000
  3 C      6.1160     6.0000    -0.1160     3.8896     3.8896    -0.0000
  4 C      6.4566     6.0000    -0.4566     3.7308     3.7308    -0.0000
  5 C      5.8701     6.0000     0.1299     3.6839     3.6839    -0.0000
  6 C      5.7739     6.0000     0.2261     3.7821     3.7821    -0.0000
  7 O      8.3952     8.0000    -0.3952     2.0548     2.0548    -0.0000
  8 O      8.3909     8.0000    -0.3909     2.0433     2.0433     0.0000
  9 O      8.5374     8.0000    -0.5374     1.8316     1.8316    -0.0000
 10 C      5.5999     6.0000     0.4001     3.8824     3.8824    -0.0000
 11 C      5.4982     6.0000     0.5018     3.8022     3.8022    -0.0000
 12 O      8.5126     8.0000    -0.5126     1.7955     1.7955    -0.0000
 13 H      0.6139     1.0000     0.3861     0.8422     0.8422    -0.0000
 14 H      0.8218     1.0000     0.1782     0.9417     0.9417    -0.0000
 15 H      0.8537     1.0000     0.1463     0.9427     0.9427    -0.0000
 16 H      0.8574     1.0000     0.1426     0.9417     0.9417    -0.0000
 17 H      0.8567     1.0000     0.1433     0.9408     0.9408    -0.0000
 18 H      0.8144     1.0000     0.1856     0.9336     0.9336     0.0000
 19 H      0.8273     1.0000     0.1727     0.9359     0.9359    -0.0000
 20 H      0.8250     1.0000     0.1750     0.9335     0.9335    -0.0000

  Mayer bond orders larger than 0.1
B(  0-C ,  2-C ) :   1.4363 B(  0-C ,  5-C ) :   1.3716 B(  0-C , 14-H ) :   0.9128 
B(  1-C ,  3-C ) :   1.4308 B(  1-C ,  6-C ) :   1.4122 B(  1-C , 15-H ) :   0.9233 
B(  2-C ,  3-C ) :   1.4274 B(  2-C , 16-H ) :   0.9306 B(  3-C , 17-H ) :   0.9275 
B(  4-C , 11-C ) :   0.9471 B(  4-C , 18-H ) :   0.9295 B(  4-C , 19-H ) :   0.9439 
B(  4-C , 20-H ) :   0.9319 B(  5-C ,  6-C ) :   1.3290 B(  5-C , 10-C ) :   0.9203 
B(  6-C , 12-O ) :   0.8237 B(  7-O , 10-C ) :   1.8823 B(  8-O , 11-C ) :   1.9140 
B(  9-O , 10-C ) :   1.0003 B(  9-O , 13-H ) :   0.7762 B( 11-C , 12-O ) :   0.8963 


-------
TIMINGS
-------

Total SCF time: 0 days 0 hours 1 min 31 sec 

Total time                  ....      91.657 sec
Sum of individual times     ....      94.279 sec  (102.9%)

Fock matrix formation       ....      87.790 sec  ( 95.8%)
  Coulomb formation         ....      79.225 sec  ( 90.2% of F)
  XC integration            ....       8.525 sec  (  9.7% of F)
    Basis function eval.    ....       3.913 sec  ( 45.9% of XC)
    Density eval.           ....       1.818 sec  ( 21.3% of XC)
    XC-Functional eval.     ....       0.807 sec  (  9.5% of XC)
    XC-Potential eval.      ....       1.661 sec  ( 19.5% of XC)
Diagonalization             ....       0.062 sec  (  0.1%)
Density matrix formation    ....       0.010 sec  (  0.0%)
Population analysis         ....       0.033 sec  (  0.0%)
Initial guess               ....       1.882 sec  (  2.1%)
Orbital Transformation      ....       0.000 sec  (  0.0%)
Orbital Orthonormalization  ....       0.000 sec  (  0.0%)
DIIS solution               ....       0.029 sec  (  0.0%)
SOSCF solution              ....       0.070 sec  (  0.1%)
Grid generation             ....       4.404 sec  (  4.8%)

-------------------------   --------------------
FINAL SINGLE POINT ENERGY      -648.486522811423
-------------------------   --------------------

------------------------------------------------------------------------------
                         ORCA SCF GRADIENT CALCULATION
------------------------------------------------------------------------------

Gradient of the Kohn-Sham DFT energy:
Kohn-Sham wavefunction type      ... RKS
Hartree-Fock exchange scaling    ...    0.200
Number of operators              ...    1
Number of atoms                  ...   21
Basis set dimensions             ...  133
Integral neglect threshold       ... 2.5e-11
Integral primitive cutoff        ... 2.5e-12

Nuclear repulsion gradient       ... done
One Electron Gradient            ... done
Pre-screening matrix             ... done
Starting the two electron gradient:
Two electron gradient done
Exchange-correlation gradient    ... done

------------------
CARTESIAN GRADIENT
------------------

   1   C   :   -0.009208387   -0.004358958   -0.000165756
   2   C   :    0.000421690    0.000323749   -0.000946480
   3   C   :   -0.004026316    0.006397377   -0.003307884
   4   C   :   -0.001065263   -0.004137397    0.001644522
   5   C   :    0.005118293   -0.001386896   -0.007841862
   6   C   :   -0.001944858    0.008135817   -0.003020692
   7   C   :   -0.022808813   -0.008760014    0.013534664
   8   O   :   -0.021436438    0.025407297   -0.014284002
   9   O   :   -0.014170983    0.000760257    0.000639511
  10   O   :    0.023853332    0.007410426    0.002257695
  11   C   :   -0.013219130   -0.037171763    0.009130263
  12   C   :    0.039779235    0.001166398    0.000813146
  13   O   :   -0.004109041   -0.003325195   -0.011308682
  14   H   :    0.012733182    0.003592742    0.002244095
  15   H   :    0.006178087   -0.000489158    0.001590972
  16   H   :    0.002041701    0.003571715   -0.000938995
  17   H   :    0.002025549    0.000698358    0.000102202
  18   H   :    0.001327105    0.000975437    0.000118590
  19   H   :   -0.000525250   -0.001200781    0.004552909
  20   H   :   -0.002062666   -0.000315478    0.001232565
  21   H   :    0.001207273    0.002690721    0.004039828

Norm of the cartesian gradient     ...    0.083440837
RMS gradient                       ...    0.010512557
MAX gradient                       ...    0.039779235

-------
TIMINGS
-------

Total SCF gradient time            ...       48.233 sec

One electron gradient       ....       0.305 sec  (  0.6%)
Prescreening matrices       ....       0.074 sec  (  0.2%)
Two electron gradient       ....      35.851 sec  ( 74.3%)
XC gradient                 ....      11.452 sec  ( 23.7%)
------------------------------------------------------------------------------
                         ORCA GEOMETRY RELAXATION STEP
------------------------------------------------------------------------------

Reading the OPT-File                    .... done
Getting information on internals        .... done
Copying old internal coords+grads       .... done
Making the new internal coordinates     .... (new redundants).... done
Validating the new internal coordinates .... (new redundants).... done
Calculating the B-matrix                .... done
Calculating the G,G- and P matrices     .... done
Transforming gradient to internals      .... done
Projecting the internal gradient        .... done
Number of atoms                         ....  21
Number of internal coordinates          ....  93
Current Energy                          ....  -648.486522811 Eh
Current gradient norm                   ....     0.083440837 Eh/bohr
Maximum allowed component of the step   ....  0.300
Current trust radius                    ....  0.300
Evaluating the initial hessian          ....  (Almloef) done
Projecting the Hessian                  .... done
Forming the augmented Hessian           .... done
Diagonalizing the augmented Hessian     .... done
Last element of RFO vector              ....  0.977749021
Lowest eigenvalues of augmented Hessian:
 -0.012818317  0.012933714  0.013360904  0.015495543  0.019280371
Length of the computed step             ....  0.214552094
The final length of the internal step   ....  0.214552094
Converting the step to cartesian space:
 Initial RMS(Int)=    0.0222480158
Transforming coordinates:
 Iter   0:  RMS(Cart)=    0.1215259720 RMS(Int)=    1.1264673094
 Iter   1:  RMS(Cart)=    0.0075656804 RMS(Int)=    0.0030891075
 Iter   2:  RMS(Cart)=    0.0006305105 RMS(Int)=    0.0002123818
 Iter   3:  RMS(Cart)=    0.0000864676 RMS(Int)=    0.0000315333
 Iter   4:  RMS(Cart)=    0.0000072334 RMS(Int)=    0.0000031828
 Iter   5:  RMS(Cart)=    0.0000009430 RMS(Int)=    0.0000003504
 Iter   6:  RMS(Cart)=    0.0000000832 RMS(Int)=    0.0000000429
done
Storing new coordinates                 .... done

                                .--------------------.
          ----------------------|Geometry convergence|---------------------
          Item                value                 Tolerance   Converged
          -----------------------------------------------------------------
          RMS gradient        0.00842453            0.00010000      NO
          MAX gradient        0.03957500            0.00030000      NO
          RMS step            0.02224802            0.00200000      NO
          MAX step            0.09334274            0.00400000      NO
          ....................................................
          Max(Bonds)      0.0292      Max(Angles)    5.35
          Max(Dihed)        3.94      Max(Improp)    0.00
          -----------------------------------------------------------------

The optimization has not yet converged - more geometry cycles are needed


    ---------------------------------------------------------------------------
                         Redundant Internal Coordinates
                            (Angstroem and degrees)

        Definition                    Value    dE/dq     Step     New-Value
    ----------------------------------------------------------------------------
     1. B(C   2,C   0)                1.3983  0.003618 -0.0031    1.3952   
     2. B(C   3,C   2)                1.3933 -0.005834  0.0049    1.3982   
     3. B(C   3,C   1)                1.3936 -0.003417  0.0029    1.3965   
     4. B(C   5,C   0)                1.4051 -0.001383  0.0012    1.4063   
     5. B(C   6,C   5)                1.4013 -0.006292  0.0054    1.4067   
     6. B(C   6,C   1)                1.4006  0.004050 -0.0035    1.3971   
     7. B(C  10,C   5)                1.4850 -0.000270  0.0003    1.4853   
     8. B(C  10,O   9)                1.3438 -0.037293  0.0292    1.3730   
     9. B(C  10,O   7)                1.2189 -0.035814  0.0178    1.2367   
    10. B(C  11,O   8)                1.2241 -0.003727  0.0019    1.2259   
    11. B(C  11,C   4)                1.4993 -0.004064  0.0050    1.5043   
    12. B(O  12,C  11)                1.3900 -0.013652  0.0126    1.4026   
    13. B(O  12,C   6)                1.3969 -0.022875  0.0217    1.4186   
    14. B(H  13,O   9)                0.9806 -0.005712  0.0061    0.9867   
    15. B(H  14,C   0)                1.0893  0.004104 -0.0058    1.0835   
    16. B(H  15,C   1)                1.0865  0.002168 -0.0030    1.0835   
    17. B(H  16,C   2)                1.0875  0.002045 -0.0029    1.0846   
    18. B(H  17,C   3)                1.0871  0.001456 -0.0020    1.0851   
    19. B(H  18,C   4)                1.0929 -0.000221  0.0003    1.0932   
    20. B(H  19,C   4)                1.0945  0.002093 -0.0030    1.0915   
    21. B(H  20,C   4)                1.0924 -0.001307  0.0019    1.0943   
    22. A(C   5,C   0,H  14)          120.20  0.006155   -0.94    119.25   
    23. A(C   2,C   0,C   5)          120.83 -0.002214    0.30    121.13   
    24. A(C   2,C   0,H  14)          118.97 -0.003941    0.65    119.62   
    25. A(C   3,C   1,C   6)          119.91 -0.001213    0.18    120.09   
    26. A(C   6,C   1,H  15)          120.26  0.004320   -0.67    119.59   
    27. A(C   3,C   1,H  15)          119.83 -0.003110    0.50    120.33   
    28. A(C   3,C   2,H  16)          120.06 -0.001580    0.23    120.29   
    29. A(C   0,C   2,H  16)          119.86 -0.000275    0.02    119.89   
    30. A(C   0,C   2,C   3)          120.08  0.001855   -0.25    119.82   
    31. A(C   1,C   3,H  17)          120.06  0.000755   -0.12    119.94   
    32. A(C   1,C   3,C   2)          119.90  0.000032    0.01    119.90   
    33. A(C   2,C   3,H  17)          120.04 -0.000787    0.12    120.16   
    34. A(H  18,C   4,H  20)          110.68  0.004422   -1.34    109.34   
    35. A(C  11,C   4,H  20)          109.85 -0.002390    0.29    110.14   
    36. A(H  18,C   4,H  19)          108.47 -0.002066    0.66    109.13   
    37. A(C  11,C   4,H  19)          109.30  0.000748    0.11    109.41   
    38. A(H  19,C   4,H  20)          108.62 -0.000837    0.43    109.05   
    39. A(C  11,C   4,H  18)          109.89  0.000093   -0.13    109.76   
    40. A(C   0,C   5,C  10)          116.52  0.003836   -0.52    116.00   
    41. A(C   0,C   5,C   6)          118.30  0.000291   -0.04    118.25   
    42. A(C   6,C   5,C  10)          125.18 -0.004130    0.57    125.75   
    43. A(C   5,C   6,O  12)          122.70  0.001414   -0.20    122.50   
    44. A(C   1,C   6,O  12)          116.28 -0.002630    0.34    116.62   
    45. A(C   1,C   6,C   5)          120.97  0.001234   -0.17    120.81   
    46. A(C  10,O   9,H  13)          103.14 -0.022504    3.37    106.52   
    47. A(O   7,C  10,O   9)          120.00 -0.003556    0.42    120.41   
    48. A(C   5,C  10,O   9)          114.98 -0.004765    0.64    115.62   
    49. A(C   5,C  10,O   7)          125.02  0.008310   -1.04    123.98   
    50. A(C   4,C  11,O  12)          108.76 -0.008784    1.15    109.91   
    51. A(C   4,C  11,O   8)          124.34 -0.011467    1.37    125.72   
    52. A(O   8,C  11,O  12)          126.89  0.020249   -2.52    124.37   
    53. A(C   6,O  12,C  11)          112.52 -0.039575    5.35    117.87   
    54. D(C   3,C   2,C   0,H  14)    179.67 -0.000269    0.40    180.07   
    55. D(H  16,C   2,C   0,C   5)    179.89  0.000089   -0.14    179.75   
    56. D(H  16,C   2,C   0,H  14)     -0.25 -0.000153    0.23     -0.02   
    57. D(C   3,C   2,C   0,C   5)     -0.19 -0.000027    0.03     -0.15   
    58. D(H  17,C   3,C   1,C   6)   -179.36  0.000303   -0.47   -179.83   
    59. D(C   1,C   3,C   2,H  16)   -179.75 -0.000015    0.02   -179.73   
    60. D(C   2,C   3,C   1,C   6)      0.49  0.000168   -0.29      0.20   
    61. D(H  17,C   3,C   2,H  16)      0.10 -0.000148    0.21      0.30   
    62. D(H  17,C   3,C   2,C   0)   -179.83 -0.000033    0.03   -179.79   
    63. D(C   2,C   3,C   1,H  15)   -179.98 -0.000312    0.44   -179.54   
    64. D(H  17,C   3,C   1,H  15)      0.17 -0.000176    0.26      0.42   
    65. D(C   1,C   3,C   2,C   0)      0.33  0.000100   -0.15      0.18   
    66. D(C   6,C   5,C   0,H  14)    179.39 -0.000107    0.14    179.53   
    67. D(C  10,C   5,C   0,C   2)    178.84 -0.000853    1.31    180.14   
    68. D(C   6,C   5,C   0,C   2)     -0.76 -0.000366    0.52     -0.24   
    69. D(C  10,C   5,C   0,H  14)     -1.02 -0.000593    0.93     -0.08   
    70. D(O  12,C   6,C   5,C  10)     -0.66  0.001580   -2.54     -3.20   
    71. D(C   1,C   6,C   5,C  10)   -177.97  0.001165   -1.82   -179.79   
    72. D(C   1,C   6,C   5,C   0)      1.58  0.000669   -0.96      0.62   
    73. D(O  12,C   6,C   1,H  15)      1.53 -0.000559    0.81      2.34   
    74. D(O  12,C   6,C   1,C   3)   -178.95 -0.001076    1.55   -177.40   
    75. D(O  12,C   6,C   5,C   0)    178.90  0.001085   -1.68    177.22   
    76. D(C   5,C   6,C   1,H  15)    179.01 -0.000072    0.12    179.13   
    77. D(C   5,C   6,C   1,C   3)     -1.47 -0.000589    0.86     -0.61   
    78. D(O   7,C  10,O   9,H  13)      0.59  0.000478   -0.89     -0.30   
    79. D(C   5,C  10,O   9,H  13)    179.86 -0.000379    0.76    180.63   
    80. D(O   9,C  10,C   5,C   6)      3.28  0.001130   -2.37      0.91   
    81. D(O   9,C  10,C   5,C   0)   -176.28  0.001630   -3.22   -179.50   
    82. D(O   7,C  10,C   5,C   6)   -177.48  0.000117   -0.62   -178.10   
    83. D(O   7,C  10,C   5,C   0)      2.95  0.000618   -1.47      1.49   
    84. D(O   8,C  11,C   4,H  18)   -120.55  0.001859   -0.42   -120.97   
    85. D(O  12,C  11,C   4,H  20)    -62.12 -0.002018    0.77    -61.35   
    86. D(O  12,C  11,C   4,H  19)    178.80 -0.000013    0.00    178.80   
    87. D(O  12,C  11,C   4,H  18)     59.88  0.002000   -0.80     59.08   
    88. D(O   8,C  11,C   4,H  20)    117.45 -0.002158    1.15    118.60   
    89. D(O   8,C  11,C   4,H  19)     -1.63 -0.000154    0.38     -1.25   
    90. D(C   6,O  12,C  11,O   8)      2.85  0.000526   -0.79      2.06   
    91. D(C   6,O  12,C  11,C   4)   -177.59  0.000204   -0.39   -177.97   
    92. D(C  11,O  12,C   6,C   5)     86.32  0.001906   -3.24     83.08   
    93. D(C  11,O  12,C   6,C   1)    -96.24  0.002395   -3.94   -100.18   
    ----------------------------------------------------------------------------

         *************************************************************
         *                GEOMETRY OPTIMIZATION CYCLE   2            *
         *************************************************************
---------------------------------
CARTESIAN COORDINATES (ANGSTROEM)
---------------------------------
  C      2.099934   -0.175489    0.340384
  C      0.732709    2.064080   -0.602516
  C      2.799575    1.000194    0.066854
  C      2.114320    2.122722   -0.407746
  C     -3.660268    1.011318   -0.011612
  C      0.708801   -0.254649    0.150292
  C      0.034925    0.887207   -0.319781
  O      0.699788   -2.532881    0.923671
  O     -1.887645    1.297567    1.630058
  O     -1.276937   -1.631023    0.281404
  C      0.079728   -1.559126    0.480064
  C     -2.238646    1.090013    0.473913
  O     -1.356156    0.890698   -0.597926
  H     -1.551863   -2.540059    0.549196
  H      2.634125   -1.043057    0.709113
  H      0.195911    2.927503   -0.977037
  H      3.871890    1.040072    0.224554
  H      2.653464    3.038866   -0.625499
  H     -3.842197    0.033500   -0.465388
  H     -4.339677    1.146135    0.831964
  H     -3.849600    1.795090   -0.751439

----------------------------
CARTESIAN COORDINATES (A.U.)
----------------------------
  NO LB      ZA    FRAG    MASS        X           Y           Z
   0 C     6.0000    0    12.011    3.968300   -0.331626    0.643232
   1 C     6.0000    0    12.011    1.384619    3.900546   -1.138590
   2 C     6.0000    0    12.011    5.290429    1.890092    0.126336
   3 C     6.0000    0    12.011    3.995485    4.011364   -0.770529
   4 C     6.0000    0    12.011   -6.916904    1.911115   -0.021943
   5 C     6.0000    0    12.011    1.339440   -0.481217    0.284011
   6 C     6.0000    0    12.011    0.065998    1.676578   -0.604299
   7 O     8.0000    0    15.999    1.322408   -4.786451    1.745485
   8 O     8.0000    0    15.999   -3.567133    2.452046    3.080363
   9 O     8.0000    0    15.999   -2.413062   -3.082187    0.531777
  10 C     6.0000    0    12.011    0.150664   -2.946320    0.907189
  11 C     6.0000    0    12.011   -4.230428    2.059825    0.895566
  12 O     8.0000    0    15.999   -2.562763    1.683175   -1.129916
  13 H     1.0000    0     1.008   -2.932596   -4.800016    1.037831
  14 H     1.0000    0     1.008    4.977775   -1.971093    1.340029
  15 H     1.0000    0     1.008    0.370219    5.532178   -1.846333
  16 H     1.0000    0     1.008    7.316812    1.965450    0.424346
  17 H     1.0000    0     1.008    5.014321    5.742625   -1.182022
  18 H     1.0000    0     1.008   -7.260701    0.063306   -0.879456
  19 H     1.0000    0     1.008   -8.200801    2.165881    1.572183
  20 H     1.0000    0     1.008   -7.274690    3.392229   -1.420015

--------------------------------
INTERNAL COORDINATES (ANGSTROEM)
--------------------------------
 C      0   0   0   0.000000     0.000     0.000
 C      1   0   0   2.788195     0.000     0.000
 C      1   2   0   1.395187    60.181     0.000
 C      2   1   3   1.396504    60.095     0.089
 C      2   1   3   4.555844   104.085   191.472
 C      1   2   3   1.406290    60.950   179.935
 C      2   1   3   1.397094    59.990   180.380
 O      6   1   2   2.405938    90.777   180.705
 O      5   2   1   2.432942    50.043    63.247
 O      8   6   1   2.265678    62.304   180.728
 C      8   6   1   1.236714    30.795   181.333
 C      9   5   2   1.225949    30.132   340.424
 O     12   9   5   1.402624   124.373   179.945
 H     10   8   6   0.986733    78.431   180.291
 H      1   2   3   1.083511   179.757    34.296
 H      2   1   3   1.083475   179.367   131.763
 H      3   1   2   1.084583   119.886   179.820
 H      4   2   1   1.085087   119.936   179.879
 H      5   2   1   1.093225   108.259   308.446
 H      5   2   1   1.091509   132.214    88.370
 H      5   2   1   1.094299    85.046   199.694

---------------------------
INTERNAL COORDINATES (A.U.)
---------------------------
 C      0   0   0   0.000000     0.000     0.000
 C      1   0   0   5.268925     0.000     0.000
 C      1   2   0   2.636521    60.181     0.000
 C      2   1   3   2.639010    60.095     0.089
 C      2   1   3   8.609298   104.085   191.472
 C      1   2   3   2.657503    60.950   179.935
 C      2   1   3   2.640125    59.990   180.380
 O      6   1   2   4.546564    90.777   180.705
 O      5   2   1   4.597594    50.043    63.247
 O      8   6   1   4.281511    62.304   180.728
 C      8   6   1   2.337051    30.795   181.333
 C      9   5   2   2.316708    30.132   340.424
 O     12   9   5   2.650575   124.373   179.945
 H     10   8   6   1.864656    78.431   180.291
 H      1   2   3   2.047539   179.757    34.296
 H      2   1   3   2.047470   179.367   131.763
 H      3   1   2   2.049565   119.886   179.820
 H      4   2   1   2.050516   119.936   179.879
 H      5   2   1   2.065896   108.259   308.446
 H      5   2   1   2.062652   132.214    88.370
 H      5   2   1   2.067925    85.046   199.694


Diagonalization of the overlap matrix:
Smallest eigenvalue                        ... 5.455e-04
Time for diagonalization                   ...    0.006 sec
Time for construction of square roots      ...    0.004 sec
Total time needed                          ...    0.010 sec

-------------------
DFT GRID GENERATION
-------------------

General Integration Accuracy     IntAcc      ...  4.340
Radial Grid Type                 RadialGrid  ... Gauss-Chebyshev
Angular Grid (max. acc.)         AngularGrid ... Lebedev-110
Angular grid pruning method      GridPruning ... 3 (G Style)
Weight generation scheme         WeightScheme... Becke
Basis function cutoff            BFCut       ...    1.0000e-11
Integration weight cutoff        WCut        ...    1.0000e-14
Grids for H and He will be reduced by one unit

# of grid points (after initial pruning)     ...  28120 (   0.0 sec)
# of grid points (after weights+screening)   ...  25887 (   0.3 sec)
nearest neighbour list constructed           ...    0.0 sec
Grid point re-assignment to atoms done       ...    0.0 sec
Grid point division into batches done        ...    0.0 sec
Reduced shell lists constructed in    0.5 sec

Total number of grid points                  ...    25887
Total number of batches                      ...      413
Average number of points per batch           ...       62
Average number of grid points per atom       ...     1233
Average number of shells per batch           ...    50.33 (62.14%)
Average number of basis functions per batch  ...    89.07 (66.97%)
Average number of large shells per batch     ...    36.06 (71.64%)
Average number of large basis fcns per batch ...    65.30 (73.31%)
Maximum spatial batch extension              ...  18.36, 21.51, 25.60 au
Average spatial batch extension              ...   3.31,  3.57,  4.03 au

Time for grid setup =    0.862 sec

--------------
SCF ITERATIONS
--------------
ITER       Energy         Delta-E        Max-DP      RMS-DP      [F,P]     Damp
               ***  Starting incremental Fock matrix formation  ***
  0   -648.4716858989   0.000000000000 0.01099458  0.00052569  0.0609640 0.7000
  1   -648.4775816227  -0.005895723848 0.01077157  0.00048632  0.0482685 0.7000
                               ***Turning on DIIS***
  2   -648.4822612435  -0.004679620779 0.02885024  0.00126815  0.0363498 0.0000
  3   -648.4941293191  -0.011868075532 0.00357560  0.00019308  0.0051785 0.0000
                      *** Initiating the SOSCF procedure ***
                           *** Shutting down DIIS ***
                      *** Re-Reading the Fockian *** 
                      *** Removing any level shift *** 
ITER      Energy       Delta-E        Grad      Rot      Max-DP    RMS-DP
  4   -648.49430202  -0.0001726967  0.000683  0.000683  0.001353  0.000074
               *** Restarting incremental Fock matrix formation ***
  5   -648.49432979  -0.0000277727  0.000429  0.001907  0.001255  0.000057
  6   -648.49433598  -0.0000061894  0.000185  0.001117  0.000759  0.000038
  7   -648.49433678  -0.0000008034  0.000159  0.000527  0.000356  0.000021
  8   -648.49433793  -0.0000011512  0.000103  0.000250  0.000462  0.000015
  9   -648.49433775   0.0000001781  0.000113  0.000184  0.000264  0.000009
 10   -648.49433812  -0.0000003673  0.000015  0.000035  0.000076  0.000004
 11   -648.49433811   0.0000000116  0.000020  0.000025  0.000052  0.000002
 12   -648.49433813  -0.0000000249  0.000009  0.000026  0.000033  0.000001
 13   -648.49433813   0.0000000033  0.000017  0.000018  0.000022  0.000001
                  ***Gradient check signals convergence***
              ***Rediagonalizing the Fockian in SOSCF/NRSCF***

               *****************************************************
               *                     SUCCESS                       *
               *           SCF CONVERGED AFTER  14 CYCLES          *
               *****************************************************

Setting up the final grid:

General Integration Accuracy     IntAcc      ...  4.670
Radial Grid Type                 RadialGrid  ... Gauss-Chebyshev
Angular Grid (max. acc.)         AngularGrid ... Lebedev-302
Angular grid pruning method      GridPruning ... 3 (G Style)
Weight generation scheme         WeightScheme... Becke
Basis function cutoff            BFCut       ...    1.0000e-11
Integration weight cutoff        WCut        ...    1.0000e-14
Grids for H and He will be reduced by one unit

# of grid points (after initial pruning)     ... 107908 (   0.1 sec)
# of grid points (after weights+screening)   ...  97558 (   1.3 sec)
nearest neighbour list constructed           ...    0.0 sec
Grid point re-assignment to atoms done       ...    0.0 sec
Grid point division into batches done        ...    0.3 sec
Reduced shell lists constructed in    2.1 sec

Total number of grid points                  ...    97558
Total number of batches                      ...     1534
Average number of points per batch           ...       63
Average number of grid points per atom       ...     4646
Average number of shells per batch           ...    45.53 (56.21%)
Average number of basis functions per batch  ...    80.92 (60.84%)
Average number of large shells per batch     ...    31.91 (70.09%)
Average number of large basis fcns per batch ...    58.04 (71.73%)
Maximum spatial batch extension              ...  16.58, 19.92, 21.18 au
Average spatial batch extension              ...   2.27,  2.39,  2.59 au

Final grid set up in    3.4 sec
Final integration                            ... done (   1.6 sec)
Change in XC energy                          ...     0.000088950
Integrated number of electrons               ...    93.999975852
Previous integrated no of electrons          ...    94.002545886
Total Energy       :         -648.49424919 Eh          -17646.42565 eV
  Last Energy change         ...   -4.0271e-09  Tolerance :   1.0000e-08
  Last MAX-Density change    ...    5.0664e-06  Tolerance :   1.0000e-07
             **** THE GBW FILE WAS UPDATED (/lustre/scratch/tmp/pbs.5855570.nova/orca_aspirin_b3-5855570.nova/aspirin_b3lyp.gbw) ****
             **** DENSITY FILE WAS UPDATED (/lustre/scratch/tmp/pbs.5855570.nova/orca_aspirin_b3-5855570.nova/aspirin_b3lyp.scfp.tmp) ****
             **** ENERGY FILE WAS UPDATED (/lustre/scratch/tmp/pbs.5855570.nova/orca_aspirin_b3-5855570.nova/aspirin_b3lyp.en.tmp) ****
Total SCF time: 0 days 0 hours 1 min 24 sec 

-------------------------   --------------------
FINAL SINGLE POINT ENERGY      -648.494249185947
-------------------------   --------------------

------------------------------------------------------------------------------
                         ORCA SCF GRADIENT CALCULATION
------------------------------------------------------------------------------

Gradient of the Kohn-Sham DFT energy:
Kohn-Sham wavefunction type      ... RKS
Hartree-Fock exchange scaling    ...    0.200
Number of operators              ...    1
Number of atoms                  ...   21
Basis set dimensions             ...  133
Integral neglect threshold       ... 2.5e-11
Integral primitive cutoff        ... 2.5e-12

Nuclear repulsion gradient       ... done
One Electron Gradient            ... done
Pre-screening matrix             ... done
Starting the two electron gradient:
Two electron gradient done
Exchange-correlation gradient    ... done

------------------
CARTESIAN GRADIENT
------------------

   1   C   :   -0.004966882   -0.003996967    0.000523900
   2   C   :   -0.000375841   -0.000124774    0.000033710
   3   C   :   -0.000158819    0.001763750   -0.000726445
   4   C   :   -0.000168231   -0.000127314    0.000463097
   5   C   :   -0.000978969   -0.000870313   -0.002999292
   6   C   :    0.003208752    0.005693115   -0.001426119
   7   C   :   -0.001005736   -0.002934679    0.004554913
   8   O   :   -0.002899004    0.004012742   -0.000325485
   9   O   :   -0.005678118   -0.000056072    0.002238596
  10   O   :    0.003257905    0.006686800   -0.001052776
  11   C   :   -0.004100654   -0.009748259   -0.000426106
  12   C   :    0.013534058    0.002653948    0.000029366
  13   O   :   -0.006032128   -0.003114448   -0.006366719
  14   H   :    0.002798047   -0.003326570    0.001294518
  15   H   :    0.002978552    0.001632885    0.000068699
  16   H   :    0.001844709    0.001139771   -0.000344898
  17   H   :    0.000127692    0.000176606   -0.000021558
  18   H   :    0.000587481   -0.000162200    0.000106860
  19   H   :   -0.000730882   -0.000725399    0.002523950
  20   H   :   -0.001364936   -0.000379522   -0.000182441
  21   H   :    0.000136538    0.001797650    0.002168677

Norm of the cartesian gradient     ...    0.026320718
RMS gradient                       ...    0.003316099
MAX gradient                       ...    0.013534058

-------
TIMINGS
-------

Total SCF gradient time            ...       46.381 sec

One electron gradient       ....       0.302 sec  (  0.7%)
Prescreening matrices       ....       0.074 sec  (  0.2%)
Two electron gradient       ....      35.125 sec  ( 75.7%)
XC gradient                 ....      10.332 sec  ( 22.3%)
------------------------------------------------------------------------------
                         ORCA GEOMETRY RELAXATION STEP
------------------------------------------------------------------------------

Reading the OPT-File                    .... done
Getting information on internals        .... done
Copying old internal coords+grads       .... done
Making the new internal coordinates     .... (new redundants).... done
Validating the new internal coordinates .... (new redundants).... done
Calculating the B-matrix                .... done
Calculating the G,G- and P matrices     .... done
Transforming gradient to internals      .... done
Projecting the internal gradient        .... done
Number of atoms                         ....  21
Number of internal coordinates          ....  93
Current Energy                          ....  -648.494249186 Eh
Current gradient norm                   ....     0.026320718 Eh/bohr
Maximum allowed component of the step   ....  0.300
Current trust radius                    ....  0.300
Updating the Hessian (BFGS)             .... done
Forming the augmented Hessian           .... done
Diagonalizing the augmented Hessian     .... done
Last element of RFO vector              ....  0.983569270
Lowest eigenvalues of augmented Hessian:
 -0.001820871  0.012935010  0.013317434  0.015526844  0.019617891
Length of the computed step             ....  0.183546947
The final length of the internal step   ....  0.183546947
Converting the step to cartesian space:
 Initial RMS(Int)=    0.0190329318
Transforming coordinates:
 Iter   0:  RMS(Cart)=    0.0629314175 RMS(Int)=    1.2973411744
 Iter   1:  RMS(Cart)=    0.0023723465 RMS(Int)=    0.0011043597
 Iter   2:  RMS(Cart)=    0.0001560647 RMS(Int)=    0.0000743416
 Iter   3:  RMS(Cart)=    0.0000142429 RMS(Int)=    0.0000070273
 Iter   4:  RMS(Cart)=    0.0000009693 RMS(Int)=    0.0000005534
 Iter   5:  RMS(Cart)=    0.0000000893 RMS(Int)=    0.0000000513
done
Storing new coordinates                 .... done

                                .--------------------.
          ----------------------|Geometry convergence|---------------------
          Item                value                 Tolerance   Converged
          -----------------------------------------------------------------
          Energy change      -0.00772637            0.00000500      NO
          RMS gradient        0.00205320            0.00010000      NO
          MAX gradient        0.00890935            0.00030000      NO
          RMS step            0.01903293            0.00200000      NO
          MAX step            0.07447593            0.00400000      NO
          ....................................................
          Max(Bonds)      0.0083      Max(Angles)    1.93
          Max(Dihed)        4.27      Max(Improp)    0.00
          -----------------------------------------------------------------

The optimization has not yet converged - more geometry cycles are needed


    ---------------------------------------------------------------------------
                         Redundant Internal Coordinates
                            (Angstroem and degrees)

        Definition                    Value    dE/dq     Step     New-Value
    ----------------------------------------------------------------------------
     1. B(C   2,C   0)                1.3952  0.000963 -0.0013    1.3939   
     2. B(C   3,C   2)                1.3982 -0.001932  0.0025    1.4006   
     3. B(C   3,C   1)                1.3965 -0.000634  0.0009    1.3974   
     4. B(C   5,C   0)                1.4063 -0.000957  0.0012    1.4075   
     5. B(C   6,C   5)                1.4067 -0.001027  0.0015    1.4082   
     6. B(C   6,C   1)                1.3971  0.002333 -0.0029    1.3942   
     7. B(C  10,C   5)                1.4853  0.002359 -0.0036    1.4817   
     8. B(C  10,O   9)                1.3730 -0.006203  0.0083    1.3813   
     9. B(C  10,O   7)                1.2367 -0.004730  0.0043    1.2410   
    10. B(C  11,O   8)                1.2259  0.000462 -0.0002    1.2258   
    11. B(C  11,C   4)                1.5043  0.002329 -0.0034    1.5009   
    12. B(O  12,C  11)                1.4026  0.000068  0.0008    1.4034   
    13. B(O  12,C   6)                1.4186  0.001635 -0.0005    1.4181   
    14. B(H  13,O   9)                0.9867  0.002635 -0.0033    0.9835   
    15. B(H  14,C   0)                1.0835  0.000179 -0.0007    1.0828   
    16. B(H  15,C   1)                1.0835  0.000119 -0.0004    1.0831   
[...]

One Electron Energy:        -2428.94326171 Eh          -66094.90635 eV
Two Electron Energy:         1001.63744615 Eh           27255.94058 eV

Virial components:
Potential Energy   :        -1293.35668603 Eh          -35194.02466 eV
Kinetic Energy     :          644.86106469 Eh           17547.56167 eV
Virial Ratio       :            2.00563619


DFT components:
N(Alpha)           :       46.999987867105 electrons
N(Beta)            :       46.999987867105 electrons
N(Total)           :       93.999975734209 electrons
E(X)               :      -65.497898560683 Eh       
E(C)               :       -4.177838879710 Eh       
E(XC)              :      -69.675737440393 Eh       

---------------
SCF CONVERGENCE
---------------

  Last Energy change         ...   -1.3225e-09  Tolerance :   1.0000e-08
  Last MAX-Density change    ...    1.2192e-06  Tolerance :   1.0000e-07
  Last RMS-Density change    ...    6.6380e-08  Tolerance :   5.0000e-09
  Last Orbital Gradient      ...    4.5662e-07  Tolerance :   1.0000e-05
  Last Orbital Rotation      ...    2.1256e-06  Tolerance :   1.0000e-05

             **** THE GBW FILE WAS UPDATED (/lustre/scratch/tmp/pbs.5855570.nova/orca_aspirin_b3-5855570.nova/aspirin_b3lyp.gbw) ****
             **** DENSITY FILE WAS UPDATED (/lustre/scratch/tmp/pbs.5855570.nova/orca_aspirin_b3-5855570.nova/aspirin_b3lyp.scfp.tmp) ****
             **** ENERGY FILE WAS UPDATED (/lustre/scratch/tmp/pbs.5855570.nova/orca_aspirin_b3-5855570.nova/aspirin_b3lyp.en.tmp) ****
----------------
ORBITAL ENERGIES
----------------

  NO   OCC          E(Eh)            E(eV) 
   0   2.0000     -19.201643      -522.5033 
   1   2.0000     -19.199307      -522.4397 
   2   2.0000     -19.151641      -521.1426 
   3   2.0000     -19.150684      -521.1166 
   4   2.0000     -10.341225      -281.3990 
   5   2.0000     -10.337413      -281.2953 
   6   2.0000     -10.276154      -279.6284 
   7   2.0000     -10.225745      -278.2567 
   8   2.0000     -10.213701      -277.9289 
   9   2.0000     -10.209668      -277.8192 
  10   2.0000     -10.207737      -277.7667 
  11   2.0000     -10.205468      -277.7049 
  12   2.0000     -10.198573      -277.5173 
  13   2.0000      -1.123423       -30.5699 
  14   2.0000      -1.114141       -30.3173 
  15   2.0000      -1.040192       -28.3051 
  16   2.0000      -1.030297       -28.0358 
  17   2.0000      -0.882217       -24.0063 
  18   2.0000      -0.792087       -21.5538 
  19   2.0000      -0.786236       -21.3946 
  20   2.0000      -0.751394       -20.4465 
  21   2.0000      -0.683843       -18.6083 
  22   2.0000      -0.647223       -17.6118 
  23   2.0000      -0.613992       -16.7076 
  24   2.0000      -0.591530       -16.0964 
  25   2.0000      -0.532034       -14.4774 
  26   2.0000      -0.510130       -13.8813 
  27   2.0000      -0.499064       -13.5802 
  28   2.0000      -0.486432       -13.2365 
  29   2.0000      -0.473145       -12.8749 
  30   2.0000      -0.471076       -12.8186 
  31   2.0000      -0.460351       -12.5268 
  32   2.0000      -0.453482       -12.3399 
  33   2.0000      -0.450255       -12.2521 
  34   2.0000      -0.418360       -11.3842 
  35   2.0000      -0.409007       -11.1296 
  36   2.0000      -0.403983       -10.9929 
  37   2.0000      -0.393345       -10.7035 
  38   2.0000      -0.383672       -10.4403 
  39   2.0000      -0.369170       -10.0456 
  40   2.0000      -0.363862        -9.9012 
  41   2.0000      -0.325273        -8.8511 
  42   2.0000      -0.314444        -8.5565 
  43   2.0000      -0.288564        -7.8522 
  44   2.0000      -0.284788        -7.7495 
  45   2.0000      -0.273168        -7.4333 
  46   2.0000      -0.260530        -7.0894 
  47   0.0000      -0.064412        -1.7527 
  48   0.0000      -0.020284        -0.5520 
  49   0.0000      -0.004796        -0.1305 
  50   0.0000       0.039128         1.0647 
  51   0.0000       0.059182         1.6104 
  52   0.0000       0.084663         2.3038 
  53   0.0000       0.111376         3.0307 
  54   0.0000       0.128729         3.5029 
  55   0.0000       0.140713         3.8290 
  56   0.0000       0.150967         4.1080 
  57   0.0000       0.158419         4.3108 
  58   0.0000       0.167268         4.5516 
  59   0.0000       0.172770         4.7013 
  60   0.0000       0.183585         4.9956 
  61   0.0000       0.214401         5.8342 
  62   0.0000       0.227779         6.1982 
  63   0.0000       0.240784         6.5521 
  64   0.0000       0.268932         7.3180 
  65   0.0000       0.280341         7.6285 
  66   0.0000       0.311687         8.4814 
  67   0.0000       0.315092         8.5741 
  68   0.0000       0.337098         9.1729 
  69   0.0000       0.359455         9.7813 
  70   0.0000       0.394259        10.7283 
  71   0.0000       0.491955        13.3868 
  72   0.0000       0.498586        13.5672 
  73   0.0000       0.511688        13.9238 
  74   0.0000       0.532830        14.4990 
  75   0.0000       0.534455        14.5433 
  76   0.0000       0.542144        14.7525 
  77   0.0000       0.564934        15.3726 
  78   0.0000       0.573662        15.6101 
  79   0.0000       0.581897        15.8342 
  80   0.0000       0.586440        15.9578 
  81   0.0000       0.599901        16.3241 
  82   0.0000       0.618126        16.8201 
  83   0.0000       0.621419        16.9097 
  84   0.0000       0.629438        17.1279 
  85   0.0000       0.634259        17.2591 
  86   0.0000       0.643834        17.5196 
  87   0.0000       0.648533        17.6475 
  88   0.0000       0.661966        18.0130 
  89   0.0000       0.674063        18.3422 
  90   0.0000       0.687973        18.7207 
  91   0.0000       0.713954        19.4277 
  92   0.0000       0.748696        20.3731 
  93   0.0000       0.780131        21.2285 
  94   0.0000       0.810206        22.0468 
  95   0.0000       0.813083        22.1251 
  96   0.0000       0.826481        22.4897 
  97   0.0000       0.854345        23.2479 
  98   0.0000       0.860493        23.4152 
  99   0.0000       0.874510        23.7966 
 100   0.0000       0.883810        24.0497 
 101   0.0000       0.903527        24.5862 
 102   0.0000       0.919511        25.0212 
 103   0.0000       0.931980        25.3605 
 104   0.0000       0.947894        25.7935 
 105   0.0000       0.953354        25.9421 
 106   0.0000       0.961538        26.1648 
 107   0.0000       0.984137        26.7797 
 108   0.0000       0.986867        26.8540 
 109   0.0000       1.016658        27.6647 
 110   0.0000       1.032993        28.1092 
 111   0.0000       1.037375        28.2284 
 112   0.0000       1.050853        28.5952 
 113   0.0000       1.090228        29.6666 
 114   0.0000       1.110792        30.2262 
 115   0.0000       1.119466        30.4622 
 116   0.0000       1.156770        31.4773 
 117   0.0000       1.159972        31.5644 
 118   0.0000       1.201041        32.6820 
 119   0.0000       1.207508        32.8580 
 120   0.0000       1.260212        34.2921 
 121   0.0000       1.292341        35.1664 
 122   0.0000       1.324682        36.0464 
 123   0.0000       1.421615        38.6841 
 124   0.0000       1.445204        39.3260 
 125   0.0000       1.484426        40.3933 
 126   0.0000       1.503752        40.9192 
 127   0.0000       1.584667        43.1210 
 128   0.0000       1.776930        48.3527 
 129   0.0000       1.826657        49.7059 
 130   0.0000       1.908692        51.9382 
 131   0.0000       2.063647        56.1547 
 132   0.0000       2.104373        57.2629 

                    ********************************
                    * MULLIKEN POPULATION ANALYSIS *
                    ********************************

-----------------------
MULLIKEN ATOMIC CHARGES
-----------------------
   0 C :   -0.160615
   1 C :   -0.115191
   2 C :   -0.116593
   3 C :   -0.118584
   4 C :   -0.457562
   5 C :    0.118366
   6 C :    0.259113
   7 O :   -0.408464
   8 O :   -0.398392
   9 O :   -0.568444
  10 C :    0.435918
  11 C :    0.533841
  12 O :   -0.552474
  13 H :    0.391288
  14 H :    0.178999
  15 H :    0.147923
  16 H :    0.144738
  17 H :    0.143076
  18 H :    0.190029
  19 H :    0.174635
  20 H :    0.178391
Sum of atomic charges:   -0.0000000

--------------------------------
MULLIKEN REDUCED ORBITAL CHARGES
--------------------------------
  0 C s       :     3.230416  s :     3.230416
      pz      :     0.951560  p :     2.930199
      px      :     0.965926
      py      :     1.012714
  1 C s       :     3.199076  s :     3.199076
      pz      :     1.016003  p :     2.916115
      px      :     0.931458
      py      :     0.968653
  2 C s       :     3.195174  s :     3.195174
      pz      :     0.992248  p :     2.921419
      px      :     1.010756
      py      :     0.918414
  3 C s       :     3.208828  s :     3.208828
      pz      :     0.962129  p :     2.909755
      px      :     0.953440
      py      :     0.994187
  4 C s       :     3.339439  s :     3.339439
      pz      :     1.076716  p :     3.118123
      px      :     0.936884
      py      :     1.104523
  5 C s       :     3.138369  s :     3.138369
      pz      :     1.034104  p :     2.743265
      px      :     0.870419
      py      :     0.838742
  6 C s       :     3.139918  s :     3.139918
      pz      :     0.977854  p :     2.600969
      px      :     0.622258
      py      :     1.000858
  7 O s       :     3.944646  s :     3.944646
      pz      :     1.400578  p :     4.463817
      px      :     1.630241
      py      :     1.432999
  8 O s       :     3.954392  s :     3.954392
      pz      :     1.335319  p :     4.444000
      px      :     1.719958
      py      :     1.388723
  9 O s       :     3.918971  s :     3.918971
      pz      :     1.779236  p :     4.649473
      px      :     1.376154
      py      :     1.494083
 10 C s       :     2.973756  s :     2.973756
      pz      :     0.848765  p :     2.590326
      px      :     0.757855
      py      :     0.983706
 11 C s       :     3.014661  s :     3.014661
      pz      :     0.731559  p :     2.451498
      px      :     0.905336
      py      :     0.814603
 12 O s       :     3.935883  s :     3.935883
      pz      :     1.581559  p :     4.616591
      px      :     1.261757
      py      :     1.773275
 13 H s       :     0.608712  s :     0.608712
 14 H s       :     0.821001  s :     0.821001
 15 H s       :     0.852077  s :     0.852077
 16 H s       :     0.855262  s :     0.855262
 17 H s       :     0.856924  s :     0.856924
 18 H s       :     0.809971  s :     0.809971
 19 H s       :     0.825365  s :     0.825365
 20 H s       :     0.821609  s :     0.821609


                     *******************************
                     * LOEWDIN POPULATION ANALYSIS *
                     *******************************

----------------------
LOEWDIN ATOMIC CHARGES
----------------------
   0 C :   -0.070293
   1 C :   -0.123620
   2 C :   -0.116513
   3 C :   -0.084806
   4 C :   -0.342516
   5 C :   -0.085541
   6 C :    0.145911
   7 O :   -0.292994
   8 O :   -0.264620
   9 O :   -0.332434
  10 C :    0.258175
  11 C :    0.277522
  12 O :   -0.235190
  13 H :    0.307898
  14 H :    0.144428
  15 H :    0.134438
  16 H :    0.126348
  17 H :    0.126052
  18 H :    0.148907
  19 H :    0.136515
  20 H :    0.142332

-------------------------------
LOEWDIN REDUCED ORBITAL CHARGES
-------------------------------
  0 C s       :     2.944432  s :     2.944432
      pz      :     0.966989  p :     3.125860
      px      :     1.064250
      py      :     1.094622
  1 C s       :     2.945219  s :     2.945219
      pz      :     1.026452  p :     3.178401
      px      :     1.081852
      py      :     1.070096
  2 C s       :     2.940062  s :     2.940062
      pz      :     1.011837  p :     3.176452
      px      :     1.097417
      py      :     1.067198
  3 C s       :     2.945555  s :     2.945555
      pz      :     0.976314  p :     3.139250
      px      :     1.080717
      py      :     1.082219
  4 C s       :     2.995064  s :     2.995064
      pz      :     1.137849  p :     3.347452
      px      :     1.060949
      py      :     1.148654
  5 C s       :     2.914755  s :     2.914755
      pz      :     1.053920  p :     3.170786
      px      :     1.076568
      py      :     1.040299
  6 C s       :     2.898312  s :     2.898312
      pz      :     1.000779  p :     2.955777
      px      :     0.862359
      py      :     1.092639
  7 O s       :     3.640947  s :     3.640947
      pz      :     1.426054  p :     4.652047
      px      :     1.705852
      py      :     1.520141
  8 O s       :     3.635704  s :     3.635704
      pz      :     1.454172  p :     4.628916
      px      :     1.778624
      py      :     1.396120
  9 O s       :     3.590997  s :     3.590997
      pz      :     1.782783  p :     4.741436
      px      :     1.426177
      py      :     1.532477
 10 C s       :     2.900725  s :     2.900725
      pz      :     0.874719  p :     2.841100
      px      :     0.920322
      py      :     1.046058
 11 C s       :     2.918512  s :     2.918512
      pz      :     0.982978  p :     2.803965
      px      :     0.999980
      py      :     0.821008
 12 O s       :     3.541557  s :     3.541557
      pz      :     1.619785  p :     4.693634
      px      :     1.293822
      py      :     1.780027
 13 H s       :     0.692102  s :     0.692102
 14 H s       :     0.855572  s :     0.855572
 15 H s       :     0.865562  s :     0.865562
 16 H s       :     0.873652  s :     0.873652
 17 H s       :     0.873948  s :     0.873948
 18 H s       :     0.851093  s :     0.851093
 19 H s       :     0.863485  s :     0.863485
 20 H s       :     0.857668  s :     0.857668


                      *****************************
                      * MAYER POPULATION ANALYSIS *
                      *****************************

  NA   - Mulliken gross atomic population
  ZA   - Total nuclear charge
  QA   - Mulliken gross atomic charge
  VA   - Mayer's total valence
  BVA  - Mayer's bonded valence
  FA   - Mayer's free valence

  ATOM       NA         ZA         QA         VA         BVA        FA
  0 C      6.1606     6.0000    -0.1606     3.8926     3.8926     0.0000
  1 C      6.1152     6.0000    -0.1152     3.8656     3.8656     0.0000
  2 C      6.1166     6.0000    -0.1166     3.8616     3.8616    -0.0000
  3 C      6.1186     6.0000    -0.1186     3.8862     3.8862    -0.0000
  4 C      6.4576     6.0000    -0.4576     3.7285     3.7285    -0.0000
  5 C      5.8816     6.0000     0.1184     3.6886     3.6886     0.0000
  6 C      5.7409     6.0000     0.2591     3.7692     3.7692    -0.0000
  7 O      8.4085     8.0000    -0.4085     2.0422     2.0422    -0.0000
  8 O      8.3984     8.0000    -0.3984     2.0465     2.0465    -0.0000
  9 O      8.5684     8.0000    -0.5684     1.8139     1.8139    -0.0000
 10 C      5.5641     6.0000     0.4359     3.8498     3.8498    -0.0000
 11 C      5.4662     6.0000     0.5338     3.7883     3.7883    -0.0000
 12 O      8.5525     8.0000    -0.5525     1.7762     1.7762    -0.0000
 13 H      0.6087     1.0000     0.3913     0.8322     0.8322    -0.0000
 14 H      0.8210     1.0000     0.1790     0.9436     0.9436     0.0000
 15 H      0.8521     1.0000     0.1479     0.9434     0.9434    -0.0000
 16 H      0.8553     1.0000     0.1447     0.9412     0.9412    -0.0000
 17 H      0.8569     1.0000     0.1431     0.9410     0.9410    -0.0000
 18 H      0.8100     1.0000     0.1900     0.9319     0.9319    -0.0000
 19 H      0.8254     1.0000     0.1746     0.9358     0.9358    -0.0000
 20 H      0.8216     1.0000     0.1784     0.9329     0.9329    -0.0000

  Mayer bond orders larger than 0.1
B(  0-C ,  2-C ) :   1.4414 B(  0-C ,  5-C ) :   1.3678 B(  0-C , 14-H ) :   0.9100 
B(  1-C ,  3-C ) :   1.4308 B(  1-C ,  6-C ) :   1.4193 B(  1-C , 15-H ) :   0.9215 
B(  2-C ,  3-C ) :   1.4168 B(  2-C , 16-H ) :   0.9306 B(  3-C , 17-H ) :   0.9284 
B(  4-C , 11-C ) :   0.9469 B(  4-C , 18-H ) :   0.9269 B(  4-C , 19-H ) :   0.9416 
B(  4-C , 20-H ) :   0.9296 B(  5-C ,  6-C ) :   1.3118 B(  5-C , 10-C ) :   0.9401 
B(  6-C , 12-O ) :   0.8246 B(  7-O , 10-C ) :   1.8610 B(  8-O , 11-C ) :   1.9218 
B(  9-O , 10-C ) :   0.9670 B(  9-O , 13-H ) :   0.7735 B( 11-C , 12-O ) :   0.8644 


-------
TIMINGS
-------

Total SCF time: 0 days 0 hours 0 min 51 sec 

Total time                  ....      51.193 sec
Sum of individual times     ....      51.085 sec  ( 99.8%)

Fock matrix formation       ....      46.439 sec  ( 90.7%)
  Coulomb formation         ....      40.633 sec  ( 87.5% of F)
  XC integration            ....       5.651 sec  ( 12.2% of F)
    Basis function eval.    ....       2.659 sec  ( 47.0% of XC)
    Density eval.           ....       1.212 sec  ( 21.4% of XC)
    XC-Functional eval.     ....       0.533 sec  (  9.4% of XC)
    XC-Potential eval.      ....       0.956 sec  ( 16.9% of XC)
Diagonalization             ....       0.016 sec  (  0.0%)
Density matrix formation    ....       0.006 sec  (  0.0%)
Population analysis         ....       0.114 sec  (  0.2%)
Initial guess               ....       0.027 sec  (  0.1%)
Orbital Transformation      ....       0.000 sec  (  0.0%)
Orbital Orthonormalization  ....       0.025 sec  (  0.0%)
DIIS solution               ....       0.002 sec  (  0.0%)
SOSCF solution              ....       0.062 sec  (  0.1%)
Grid generation             ....       4.419 sec  (  8.6%)

-------------------------   --------------------
FINAL SINGLE POINT ENERGY      -648.495621346649
-------------------------   --------------------

                                *** OPTIMIZATION RUN DONE ***

                            ***************************************
                            *     ORCA property calculations      *
                            ***************************************

                                    ---------------------
                                    Active property flags
                                    ---------------------
   (+) Dipole Moment


------------------------------------------------------------------------------
                       ORCA ELECTRIC PROPERTIES CALCULATION
------------------------------------------------------------------------------

Dipole Moment Calculation                       ... on
Quadrupole Moment Calculation                   ... off
Polarizability Calculation                      ... off
GBWName                                         ... /lustre/scratch/tmp/pbs.5855570.nova/orca_aspirin_b3-5855570.nova/aspirin_b3lyp.gbw
Electron density file                           ... /lustre/scratch/tmp/pbs.5855570.nova/orca_aspirin_b3-5855570.nova/aspirin_b3lyp.scfp.tmp

-------------
DIPOLE MOMENT
-------------
                                X             Y             Z
Electronic contribution:      2.27188      -3.07854       1.47426
Nuclear contribution   :     -2.51221       3.61596      -2.37552
                        -----------------------------------------
Total Dipole Moment    :     -0.24033       0.53741      -0.90127
                        -----------------------------------------
Magnitude (a.u.)       :      1.07650
Magnitude (Debye)      :      2.73625


Timings for individual modules:

Sum of individual times         ...     1583.988 sec (=  26.400 min)
GTO integral calculation        ...       17.768 sec (=   0.296 min)   1.1 %
SCF iterations                  ...      929.559 sec (=  15.493 min)  58.7 %
SCF Gradient evaluation         ...      615.181 sec (=  10.253 min)  38.8 %
Geometry relaxation             ...       21.481 sec (=   0.358 min)   1.4 %
                             ****ORCA TERMINATED NORMALLY****
TOTAL RUN TIME: 0 days 0 hours 26 minutes 32 seconds 11 msec
