 argument  1 = aspirin.nw
                                         
                                         


              Northwest Computational Chemistry Package (NWChem) 6.1
              ------------------------------------------------------


                    Environmental Molecular Sciences Laboratory
                       Pacific Northwest National Laboratory
                                Richland, WA 99352

                              Copyright (c) 1994-2010
                       Pacific Northwest National Laboratory
                            Battelle Memorial Institute

             NWChem is an open-source computational chemistry package
                        distributed under the terms of the
                      Educational Community License (ECL) 2.0
             A copy of the license is included with this distribution
                              in the LICENSE.TXT file

                                  ACKNOWLEDGMENT
                                  --------------

            This software and its documentation were developed at the
            EMSL at Pacific Northwest National Laboratory, a multiprogram
            national laboratory, operated for the U.S. Department of Energy
            by Battelle under Contract Number DE-AC05-76RL01830. Support
            for this work was provided by the Department of Energy Office
            of Biological and Environmental Research, Office of Basic
            Energy Sciences, and the Office of Advanced Scientific Computing.


           Job information
           ---------------

    hostname      = fwnc7111
    program       = nwchem
    date          = Sat Jan  4 05:36:15 2014

    compiled      = Wed_Dec_26_00:12:44_2012
    source        = /build/nwchem-HcVZSE/nwchem-6.1
    nwchem branch = 6.1
    input         = aspirin.nw
    prefix        = molecule.
    data base     = ./molecule.db
    status        = startup
    nproc         =        1
    time left     =     -1s



           Memory information
           ------------------

    heap     =   13107201 doubles =    100.0 Mbytes
    stack    =   13107201 doubles =    100.0 Mbytes
    global   =   26214400 doubles =    200.0 Mbytes (distinct from heap & stack)
    total    =   52428802 doubles =    400.0 Mbytes
    verify   = yes
    hardfail = no 


           Directory information
           ---------------------

  0 permanent = .
  0 scratch   = .




                                NWChem Input Module
                                -------------------


                                      aspirin
                                      -------

 Scaling coordinates for geometry "geometry" by  1.889725989
 (inverse scale =  0.529177249)

 C1  symmetry detected

          ------
          auto-z
          ------


                             Geometry "geometry" -> ""
                             -------------------------

 Output coordinates in angstroms (scale by  1.889725989 to convert to a.u.)

  No.       Tag          Charge          X              Y              Z
 ---- ---------------- ---------- -------------- -------------- --------------
    1 C                    6.0000    -0.34403900    -2.27310618     0.26462859
    2 C                    6.0000     1.91336910    -0.79524910    -0.44000201
    3 C                    6.0000     0.91635871    -2.87856280     0.25609651
    4 C                    6.0000     2.04321909    -2.14031750    -0.09936595
    5 C                    6.0000     0.52922494     3.42867473    -0.19480781
    6 C                    6.0000    -0.49484938    -0.91895040    -0.07869569
    7 C                    6.0000     0.65205858    -0.18697342    -0.41409530
    8 O                    8.0000    -2.86935828    -1.00811368     0.27059724
    9 O                    8.0000     0.75615091     1.70622218     1.47812661
   10 O                    8.0000    -1.99692488     0.89375558    -0.47165751
   11 C                    6.0000    -1.87892965    -0.38109071    -0.06337777
   12 C                    6.0000     0.64246342     2.01785472     0.29987547
   13 O                    8.0000     0.60584838     1.15733227    -0.79111839
   14 H                    1.0000    -2.95963675     1.06408861    -0.39551839
   15 H                    1.0000    -1.21358169    -2.86856406     0.54020923
   16 H                    1.0000     2.79279732    -0.22060266    -0.71730755
   17 H                    1.0000     1.01509436    -3.92729287     0.52625027
   18 H                    1.0000     3.02250511    -2.61230183    -0.10857311
   19 H                    1.0000    -0.41157687     3.55865400    -0.73558965
   20 H                    1.0000     0.53552993     4.11306795     0.65933145
   21 H                    1.0000     1.37988476     3.66570406    -0.83792200

      Atomic Mass 
      ----------- 

      C                 12.000000
      O                 15.994910
      H                  1.007825


 Effective nuclear repulsion energy (a.u.)     782.6612217760

            Nuclear Dipole moment (a.u.) 
            ----------------------------
        X                 Y               Z
 ---------------- ---------------- ----------------
     0.0000000000     0.0000000000     0.0000000000



                                Z-matrix (autoz)
                                -------- 

 Units are Angstrom for bonds and degrees for angles

      Type          Name      I     J     K     L     M      Value
      ----------- --------  ----- ----- ----- ----- ----- ----------
    1 Stretch                  1     3                       1.39830
    2 Stretch                  1     6                       1.40512
    3 Stretch                  1    15                       1.08932
    4 Stretch                  2     4                       1.39359
    5 Stretch                  2     7                       1.40056
    6 Stretch                  2    16                       1.08651
    7 Stretch                  3     4                       1.39326
    8 Stretch                  3    17                       1.08746
    9 Stretch                  4    18                       1.08713
   10 Stretch                  5    12                       1.49932
   11 Stretch                  5    19                       1.09291
   12 Stretch                  5    20                       1.09453
   13 Stretch                  5    21                       1.09243
   14 Stretch                  6     7                       1.40131
   15 Stretch                  6    11                       1.48499
   16 Stretch                  7    13                       1.39694
   17 Stretch                  8    11                       1.21887
   18 Stretch                  9    12                       1.22406
   19 Stretch                 10    11                       1.34382
   20 Stretch                 10    14                       0.98062
   21 Stretch                 12    13                       1.39000
   22 Bend                     1     3     4               120.07641
   23 Bend                     1     3    17               119.86100
   24 Bend                     1     6     7               118.29708
   25 Bend                     1     6    11               116.52421
   26 Bend                     2     4     3               119.89551
   27 Bend                     2     4    18               120.05964
   28 Bend                     2     7     6               120.97359
   29 Bend                     2     7    13               116.27901
   30 Bend                     3     1     6               120.83337
   31 Bend                     3     1    15               118.97138
   32 Bend                     3     4    18               120.04468
   33 Bend                     4     2     7               119.90586
   34 Bend                     4     2    16               119.83089
   35 Bend                     4     3    17               120.06254
   36 Bend                     5    12     9               124.34470
   37 Bend                     5    12    13               108.75879
   38 Bend                     6     1    15               120.19508
   39 Bend                     6     7    13               122.69678
   40 Bend                     6    11     8               125.01994
   41 Bend                     6    11    10               114.98063
   42 Bend                     7     2    16               120.26155
   43 Bend                     7     6    11               125.17733
   44 Bend                     7    13    12               112.52262
   45 Bend                     8    11    10               119.99502
   46 Bend                     9    12    13               126.89496
   47 Bend                    11    10    14               103.14379
   48 Bend                    12     5    19               109.88800
   49 Bend                    12     5    20               109.29726
   50 Bend                    12     5    21               109.85201
   51 Bend                    19     5    20               108.46529
   52 Bend                    19     5    21               110.68393
   53 Bend                    20     5    21               108.61756
   54 Torsion                  1     3     4     2           0.32538
   55 Torsion                  1     3     4    18        -179.82507
   56 Torsion                  1     6     7     2           1.58226
   57 Torsion                  1     6     7    13         178.89757
   58 Torsion                  1     6    11     8           2.95360
   59 Torsion                  1     6    11    10        -176.27860
   60 Torsion                  2     4     3    17        -179.75449
   61 Torsion                  2     7     6    11        -177.97329
   62 Torsion                  2     7    13    12         -96.24341
   63 Torsion                  3     1     6     7          -0.75741
   64 Torsion                  3     1     6    11         178.83657
   65 Torsion                  3     4     2     7           0.48892
   66 Torsion                  3     4     2    16        -179.98290
   67 Torsion                  4     2     7     6          -1.46663
   68 Torsion                  4     2     7    13        -178.94705
   69 Torsion                  4     3     1     6          -0.18514
   70 Torsion                  4     3     1    15         179.67085
   71 Torsion                  5    12    13     7        -177.58841
   72 Torsion                  6     1     3    17         179.89457
   73 Torsion                  6     7     2    16         179.00725
   74 Torsion                  6     7    13    12          86.32370
   75 Torsion                  6    11    10    14         179.86293
   76 Torsion                  7     2     4    18        -179.36060
   77 Torsion                  7     6     1    15         179.38837
   78 Torsion                  7     6    11     8        -177.48378
   79 Torsion                  7     6    11    10           3.28402
   80 Torsion                  7    13    12     9           2.85199
   81 Torsion                  8    11    10    14           0.58895
   82 Torsion                  9    12     5    19        -120.54640
   83 Torsion                  9    12     5    20          -1.62988
   84 Torsion                  9    12     5    21         117.45096
   85 Torsion                 11     6     1    15          -1.01765
   86 Torsion                 11     6     7    13          -0.65797
   87 Torsion                 13     7     2    16           1.52682
   88 Torsion                 13    12     5    19          59.88018
   89 Torsion                 13    12     5    20         178.79669
   90 Torsion                 13    12     5    21         -62.12247
   91 Torsion                 15     1     3    17          -0.24944
   92 Torsion                 16     2     4    18           0.16757
   93 Torsion                 17     3     4    18           0.09506


            XYZ format geometry
            -------------------
    21
 geometry
 C                    -0.34403900    -2.27310618     0.26462859
 C                     1.91336910    -0.79524910    -0.44000201
 C                     0.91635871    -2.87856280     0.25609651
 C                     2.04321909    -2.14031750    -0.09936595
 C                     0.52922494     3.42867473    -0.19480781
 C                    -0.49484938    -0.91895040    -0.07869569
 C                     0.65205858    -0.18697342    -0.41409530
 O                    -2.86935828    -1.00811368     0.27059724
 O                     0.75615091     1.70622218     1.47812661
 O                    -1.99692488     0.89375558    -0.47165751
 C                    -1.87892965    -0.38109071    -0.06337777
 C                     0.64246342     2.01785472     0.29987547
 O                     0.60584838     1.15733227    -0.79111839
 H                    -2.95963675     1.06408861    -0.39551839
 H                    -1.21358169    -2.86856406     0.54020923
 H                     2.79279732    -0.22060266    -0.71730755
 H                     1.01509436    -3.92729287     0.52625027
 H                     3.02250511    -2.61230183    -0.10857311
 H                    -0.41157687     3.55865400    -0.73558965
 H                     0.53552993     4.11306795     0.65933145
 H                     1.37988476     3.66570406    -0.83792200

 ==============================================================================
                                internuclear distances
 ------------------------------------------------------------------------------
       center one      |      center two      | atomic units |  angstroms
 ------------------------------------------------------------------------------
    3 C                |   1 C                |     2.64241  |     1.39830
    4 C                |   2 C                |     2.63351  |     1.39359
    4 C                |   3 C                |     2.63288  |     1.39326
    6 C                |   1 C                |     2.65529  |     1.40512
    7 C                |   2 C                |     2.64668  |     1.40056
    7 C                |   6 C                |     2.64810  |     1.40131
   11 C                |   6 C                |     2.80623  |     1.48499
   11 C                |   8 O                |     2.30333  |     1.21887
   11 C                |  10 O                |     2.53945  |     1.34382
   12 C                |   5 C                |     2.83330  |     1.49932
   12 C                |   9 O                |     2.31313  |     1.22406
   13 O                |   7 C                |     2.63983  |     1.39694
   13 O                |  12 C                |     2.62672  |     1.39000
   14 H                |  10 O                |     1.85311  |     0.98062
   15 H                |   1 C                |     2.05852  |     1.08932
   16 H                |   2 C                |     2.05321  |     1.08651
   17 H                |   3 C                |     2.05500  |     1.08746
   18 H                |   4 C                |     2.05438  |     1.08713
   19 H                |   5 C                |     2.06530  |     1.09291
   20 H                |   5 C                |     2.06835  |     1.09453
   21 H                |   5 C                |     2.06439  |     1.09243
 ------------------------------------------------------------------------------
                         number of included internuclear distances:         21
 ==============================================================================



 ==============================================================================
                                 internuclear angles
 ------------------------------------------------------------------------------
        center 1       |       center 2       |       center 3       |  degrees
 ------------------------------------------------------------------------------
    3 C                |   1 C                |   6 C                |   120.83
    3 C                |   1 C                |  15 H                |   118.97
    6 C                |   1 C                |  15 H                |   120.20
    4 C                |   2 C                |   7 C                |   119.91
    4 C                |   2 C                |  16 H                |   119.83
    7 C                |   2 C                |  16 H                |   120.26
    1 C                |   3 C                |   4 C                |   120.08
    1 C                |   3 C                |  17 H                |   119.86
    4 C                |   3 C                |  17 H                |   120.06
    2 C                |   4 C                |   3 C                |   119.90
    2 C                |   4 C                |  18 H                |   120.06
    3 C                |   4 C                |  18 H                |   120.04
   12 C                |   5 C                |  19 H                |   109.89
   12 C                |   5 C                |  20 H                |   109.30
   12 C                |   5 C                |  21 H                |   109.85
   19 H                |   5 C                |  20 H                |   108.47
   19 H                |   5 C                |  21 H                |   110.68
   20 H                |   5 C                |  21 H                |   108.62
    1 C                |   6 C                |   7 C                |   118.30
    1 C                |   6 C                |  11 C                |   116.52
    7 C                |   6 C                |  11 C                |   125.18
    2 C                |   7 C                |   6 C                |   120.97
    2 C                |   7 C                |  13 O                |   116.28
    6 C                |   7 C                |  13 O                |   122.70
   11 C                |  10 O                |  14 H                |   103.14
    6 C                |  11 C                |   8 O                |   125.02
    6 C                |  11 C                |  10 O                |   114.98
    8 O                |  11 C                |  10 O                |   120.00
    5 C                |  12 C                |   9 O                |   124.34
    5 C                |  12 C                |  13 O                |   108.76
    9 O                |  12 C                |  13 O                |   126.89
    7 C                |  13 O                |  12 C                |   112.52
 ------------------------------------------------------------------------------
                            number of included internuclear angles:         32
 ==============================================================================





 Summary of "ao basis" -> "" (cartesian)
 ------------------------------------------------------------------------------
       Tag                 Description            Shells   Functions and Types
 ---------------- ------------------------------  ------  ---------------------
 *                           6-31G                    on all atoms 




                           NWChem Geometry Optimization
                           ----------------------------




                                      aspirin


 maximum gradient threshold         (gmax) =   0.000450
 rms gradient threshold             (grms) =   0.000300
 maximum cartesian step threshold   (xmax) =   0.001800
 rms cartesian step threshold       (xrms) =   0.001200
 fixed trust radius                (trust) =   0.300000
 maximum step size to saddle      (sadstp) =   0.100000
 energy precision                  (eprec) =   5.0D-06
 maximum number of steps          (nptopt) = ****
 initial hessian option           (inhess) =    0
 line search option               (linopt) =    1
 hessian update option            (modupd) =    1
 saddle point option              (modsad) =    0
 initial eigen-mode to follow     (moddir) =    0
 initial variable to follow       (vardir) =    0
 follow first negative mode     (firstneg) =    T
 apply conjugacy                    (opcg) =    F
 source of zmatrix                         =   autoz   


          -------------------
          Energy Minimization
          -------------------


 Names of Z-matrix variables 
    1              2              3              4              5         
    6              7              8              9             10         
   11             12             13             14             15         
   16             17             18             19             20         
   21             22             23             24             25         
   26             27             28             29             30         
   31             32             33             34             35         
   36             37             38             39             40         
   41             42             43             44             45         
   46             47             48             49             50         
   51             52             53             54             55         
   56             57             58             59             60         
   61             62             63             64             65         
   66             67             68             69             70         
   71             72             73             74             75         
   76             77             78             79             80         
   81             82             83             84             85         
   86             87             88             89             90         
   91             92             93         

 Variables with the same non-blank name are constrained to be equal


 Using diagonal initial Hessian 
 Scaling for Hessian diagonals: bonds = 1.00  angles = 0.25  torsions = 0.10

          --------
          Step   0
          --------


                         Geometry "geometry" -> "geometry"
                         ---------------------------------

 Output coordinates in angstroms (scale by  1.889725989 to convert to a.u.)

  No.       Tag          Charge          X              Y              Z
 ---- ---------------- ---------- -------------- -------------- --------------
    1 C                    6.0000    -0.34403900    -2.27310618     0.26462859
    2 C                    6.0000     1.91336910    -0.79524910    -0.44000201
    3 C                    6.0000     0.91635871    -2.87856280     0.25609651
    4 C                    6.0000     2.04321909    -2.14031750    -0.09936595
    5 C                    6.0000     0.52922494     3.42867473    -0.19480781
    6 C                    6.0000    -0.49484938    -0.91895040    -0.07869569
    7 C                    6.0000     0.65205858    -0.18697342    -0.41409530
    8 O                    8.0000    -2.86935828    -1.00811368     0.27059724
    9 O                    8.0000     0.75615091     1.70622218     1.47812661
   10 O                    8.0000    -1.99692488     0.89375558    -0.47165751
   11 C                    6.0000    -1.87892965    -0.38109071    -0.06337777
   12 C                    6.0000     0.64246342     2.01785472     0.29987547
   13 O                    8.0000     0.60584838     1.15733227    -0.79111839
   14 H                    1.0000    -2.95963675     1.06408861    -0.39551839
   15 H                    1.0000    -1.21358169    -2.86856406     0.54020923
   16 H                    1.0000     2.79279732    -0.22060266    -0.71730755
   17 H                    1.0000     1.01509436    -3.92729287     0.52625027
   18 H                    1.0000     3.02250511    -2.61230183    -0.10857311
   19 H                    1.0000    -0.41157687     3.55865400    -0.73558965
   20 H                    1.0000     0.53552993     4.11306795     0.65933145
   21 H                    1.0000     1.37988476     3.66570406    -0.83792200

      Atomic Mass 
      ----------- 

      C                 12.000000
      O                 15.994910
      H                  1.007825


 Effective nuclear repulsion energy (a.u.)     782.6612217760

            Nuclear Dipole moment (a.u.) 
            ----------------------------
        X                 Y               Z
 ---------------- ---------------- ----------------
     0.0000000000     0.0000000000     0.0000000000


                                 NWChem DFT Module
                                 -----------------


                                      aspirin


                      Basis "ao basis" -> "ao basis" (cartesian)
                      -----
  C (Carbon)
  ----------
            Exponent  Coefficients 
       -------------- ---------------------------------------------------------
  1 S  3.04752490E+03  0.001835
  1 S  4.57369510E+02  0.014037
  1 S  1.03948690E+02  0.068843
  1 S  2.92101550E+01  0.232184
  1 S  9.28666300E+00  0.467941
  1 S  3.16392700E+00  0.362312

  2 S  7.86827240E+00 -0.119332
  2 S  1.88128850E+00 -0.160854
  2 S  5.44249300E-01  1.143456

  3 P  7.86827240E+00  0.068999
  3 P  1.88128850E+00  0.316424
  3 P  5.44249300E-01  0.744308

  4 S  1.68714400E-01  1.000000

  5 P  1.68714400E-01  1.000000

  O (Oxygen)
  ----------
            Exponent  Coefficients 
       -------------- ---------------------------------------------------------
  1 S  5.48467170E+03  0.001831
  1 S  8.25234950E+02  0.013950
  1 S  1.88046960E+02  0.068445
  1 S  5.29645000E+01  0.232714
  1 S  1.68975700E+01  0.470193
  1 S  5.79963530E+00  0.358521

  2 S  1.55396160E+01 -0.110778
  2 S  3.59993360E+00 -0.148026
  2 S  1.01376180E+00  1.130767

  3 P  1.55396160E+01  0.070874
  3 P  3.59993360E+00  0.339753
  3 P  1.01376180E+00  0.727159

  4 S  2.70005800E-01  1.000000

  5 P  2.70005800E-01  1.000000

  H (Hydrogen)
  ------------
            Exponent  Coefficients 
       -------------- ---------------------------------------------------------
  1 S  1.87311370E+01  0.033495
  1 S  2.82539370E+00  0.234727
  1 S  6.40121700E-01  0.813757

  2 S  1.61277800E-01  1.000000



 Summary of "ao basis" -> "ao basis" (cartesian)
 ------------------------------------------------------------------------------
       Tag                 Description            Shells   Functions and Types
 ---------------- ------------------------------  ------  ---------------------
 C                           6-31G                   5        9   3s2p
 O                           6-31G                   5        9   3s2p
 H                           6-31G                   2        2   2s


  Caching 1-el integrals 

            General Information
            -------------------
          SCF calculation type: DFT
          Wavefunction type:  closed shell.
          No. of atoms     :    21
          No. of electrons :    94
           Alpha electrons :    47
            Beta electrons :    47
          Charge           :     0
          Spin multiplicity:     1
          Use of symmetry is: off; symmetry adaption is: off
          Maximum number of iterations:  30
          AO basis - number of functions:   133
                     number of shells:    81
          Convergence on energy requested: 1.00D-06
          Convergence on density requested: 1.00D-05
          Convergence on gradient requested: 5.00D-04

              XC Information
              --------------
                         B3LYP Method XC Potential
                     Hartree-Fock (Exact) Exchange  0.200          
                        Slater Exchange Functional  0.800 local    
                    Becke 1988 Exchange Functional  0.720 non-local
              Lee-Yang-Parr Correlation Functional  0.810          
                  VWN I RPA Correlation Functional  0.190 local    

             Grid Information
             ----------------
          Grid used for XC integration:  medium    
          Radial quadrature: Mura-Knowles        
          Angular quadrature: Lebedev. 
          Tag              B.-S. Rad. Rad. Pts. Rad. Cut. Ang. Pts.
          ---              ---------- --------- --------- ---------
          C                   0.70       49          14.0       434
          O                   0.60       49          13.0       434
          H                   0.35       45          14.0       434
          Grid pruning is: on 
          Number of quadrature shells:   997
          Spatial weights used:  Erf1

          Convergence Information
          -----------------------
          Convergence aids based upon iterative change in 
          total energy or number of iterations. 
          Levelshifting, if invoked, occurs when the 
          HOMO/LUMO gap drops below (HL_TOL): 1.00D-02
          DIIS, if invoked, will attempt to extrapolate 
          using up to (NFOCK): 10 stored Fock matrices.

                    Damping( 0%)  Levelshifting(0.5)       DIIS
                  --------------- ------------------- ---------------
          dE  on:    start            ASAP                start   
          dE off:    2 iters         30 iters            30 iters 


      Screening Tolerance Information
      -------------------------------
          Density screening/tol_rho: 1.00D-10
          AO Gaussian exp screening on grid/accAOfunc:  14
          CD Gaussian exp screening on grid/accCDfunc:  20
          XC Gaussian exp screening on grid/accXCfunc:  20
          Schwarz screening/accCoul: 1.00D-08


      Superposition of Atomic Density Guess
      -------------------------------------

 Sum of atomic energies:        -641.94555658

      Non-variational initial energy
      ------------------------------

 Total energy =    -649.422666
 1-e energy   =   -2429.841184
 2-e energy   =     997.757296
 HOMO         =      -0.261001
 LUMO         =      -0.026177

   Time after variat. SCF:      3.2
   Time prior to 1st pass:      3.2

 Integral file          = ./molecule.aoints.0
 Record size in doubles =  65536        No. of integs per rec  =  43688
 Max. records in memory =      0        Max. records in file   =  12925
 No. of bits per label  =      8        No. of bits per value  =     64


 #quartets = 2.994D+06 #integrals = 2.239D+07 #direct =  0.0% #cached =100.0%


 Grid_pts file          = ./molecule.gridpts.0
 Record size in doubles =  12289        No. of grid_pts per rec  =   3070
 Max. records in memory =    156        Max. recs in file   =     66338


           Memory utilization after 1st SCF pass: 
           Heap Space remaining (MW):       11.18            11178188
          Stack Space remaining (MW):       13.11            13105847

   convergence    iter        energy       DeltaE   RMS-Dens  Diis-err    time
 ---------------- ----- ----------------- --------- --------- ---------  ------
 d= 0,ls=0.0,diis     1   -648.1060505406 -1.43D+03  3.14D-02  2.95D+00    21.2
 d= 0,ls=0.0,diis     2   -647.0827358711  1.02D+00  2.30D-02  1.36D+01    27.7
 d= 0,ls=0.0,diis     3   -648.4294798581 -1.35D+00  5.62D-03  5.60D-01    34.2
 d= 0,ls=0.0,diis     4   -648.4684848705 -3.90D-02  2.02D-03  1.89D-01    40.8
 d= 0,ls=0.0,diis     5   -648.4860165094 -1.75D-02  5.34D-04  5.32D-03    47.3
 d= 0,ls=0.0,diis     6   -648.4864879695 -4.71D-04  2.13D-04  8.27D-04    53.8
 d= 0,ls=0.0,diis     7   -648.4865758484 -8.79D-05  7.90D-05  1.35D-04    60.3
 d= 0,ls=0.0,diis     8   -648.4865896048 -1.38D-05  2.22D-05  1.32D-05    66.8
 d= 0,ls=0.0,diis     9   -648.4865908816 -1.28D-06  8.78D-06  9.24D-07    73.3
 d= 0,ls=0.0,diis    10   -648.4865909849 -1.03D-07  2.68D-06  1.62D-07    79.8


         Total DFT energy =     -648.486590984931
      One electron energy =    -2436.359024461005
           Coulomb energy =     1091.390551735006
    Exchange-Corr. energy =      -86.179340034887
 Nuclear repulsion energy =      782.661221775955

 Numeric. integr. density =       93.999966175612

     Total iterative time =     76.6s



                       DFT Final Molecular Orbital Analysis
                       ------------------------------------

 Vector   13  Occ=2.000000D+00  E=-1.019350D+01
              MO Center=  5.3D-01,  3.4D+00, -1.9D-01, r^2= 2.8D-02
   Bfn.  Coefficient  Atom+Function         Bfn.  Coefficient  Atom+Function  
  ----- ------------  ---------------      ----- ------------  ---------------
    37      0.995342   5 C  s         

 Vector   14  Occ=2.000000D+00  E=-1.145791D+00
              MO Center= -2.1D+00,  2.2D-01, -2.0D-01, r^2= 1.5D+00
   Bfn.  Coefficient  Atom+Function         Bfn.  Coefficient  Atom+Function  
  ----- ------------  ---------------      ----- ------------  ---------------
    87      0.356155  10 O  s                83      0.332982  10 O  s         
    92      0.239080  11 C  s                65      0.217194   8 O  s         
    69      0.191580   8 O  s                82     -0.153822  10 O  s         

 Vector   15  Occ=2.000000D+00  E=-1.129970D+00
              MO Center=  4.8D-01,  1.2D+00, -9.0D-02, r^2= 1.8D+00
   Bfn.  Coefficient  Atom+Function         Bfn.  Coefficient  Atom+Function  
  ----- ------------  ---------------      ----- ------------  ---------------
   114      0.394965  13 O  s               110      0.343262  13 O  s         
   101      0.214361  12 C  s                74      0.198309   9 O  s         
    78      0.187866   9 O  s               109     -0.160640  13 O  s         

 Vector   16  Occ=2.000000D+00  E=-1.049695D+00
              MO Center=  6.3D-01,  1.5D+00,  6.3D-01, r^2= 1.6D+00
   Bfn.  Coefficient  Atom+Function         Bfn.  Coefficient  Atom+Function  
  ----- ------------  ---------------      ----- ------------  ---------------
    74      0.372158   9 O  s                78      0.368481   9 O  s         
   114     -0.307625  13 O  s               110     -0.240266  13 O  s         
   104      0.225450  12 C  pz               73     -0.168761   9 O  s         
    77     -0.151802   9 O  pz        

 Vector   17  Occ=2.000000D+00  E=-1.041289D+00
              MO Center= -2.3D+00, -2.5D-01, -2.0D-02, r^2= 1.5D+00
   Bfn.  Coefficient  Atom+Function         Bfn.  Coefficient  Atom+Function  
  ----- ------------  ---------------      ----- ------------  ---------------
    69      0.375185   8 O  s                65      0.354537   8 O  s         
    87     -0.343114  10 O  s                83     -0.286755  10 O  s         
    94     -0.187255  11 C  py               64     -0.162562   8 O  s         

 Vector   18  Occ=2.000000D+00  E=-8.834969D-01
              MO Center=  6.2D-01, -1.3D+00, -9.3D-02, r^2= 2.6D+00
   Bfn.  Coefficient  Atom+Function         Bfn.  Coefficient  Atom+Function  
  ----- ------------  ---------------      ----- ------------  ---------------
    47      0.204940   6 C  s                 2      0.178889   1 C  s         
    56      0.174335   7 C  s                11      0.167775   2 C  s         
    29      0.167475   4 C  s                20      0.166066   3 C  s         

 Vector   19  Occ=2.000000D+00  E=-7.939809D-01
              MO Center=  5.6D-01, -9.2D-01, -1.1D-01, r^2= 5.0D+00
   Bfn.  Coefficient  Atom+Function         Bfn.  Coefficient  Atom+Function  
  ----- ------------  ---------------      ----- ------------  ---------------
    29      0.232749   4 C  s                47     -0.230198   6 C  s         
    33      0.165330   4 C  s                20      0.163733   3 C  s         

 Vector   20  Occ=2.000000D+00  E=-7.848099D-01
              MO Center=  5.4D-01,  1.8D-01, -1.4D-01, r^2= 6.2D+00
   Bfn.  Coefficient  Atom+Function         Bfn.  Coefficient  Atom+Function  
  ----- ------------  ---------------      ----- ------------  ---------------
     2      0.195669   1 C  s                11     -0.185739   2 C  s         
    38      0.183674   5 C  s                42      0.159958   5 C  s         
    56     -0.155186   7 C  s               112      0.151567  13 O  py        

 Vector   21  Occ=2.000000D+00  E=-7.482071D-01
              MO Center=  6.6D-01,  8.0D-01, -7.7D-02, r^2= 8.1D+00
   Bfn.  Coefficient  Atom+Function         Bfn.  Coefficient  Atom+Function  
  ----- ------------  ---------------      ----- ------------  ---------------
    38      0.262862   5 C  s                42      0.240745   5 C  s         
    20     -0.181898   3 C  s                11      0.157772   2 C  s         

 Vector   22  Occ=2.000000D+00  E=-6.836175D-01
              MO Center= -3.2D-01, -5.4D-01, -1.8D-01, r^2= 5.9D+00
   Bfn.  Coefficient  Atom+Function         Bfn.  Coefficient  Atom+Function  
  ----- ------------  ---------------      ----- ------------  ---------------
    92      0.208132  11 C  s                29      0.190728   4 C  s         
    84      0.188509  10 O  px               96      0.175545  11 C  s         
    85     -0.158825  10 O  py               93      0.152992  11 C  px        

 Vector   23  Occ=2.000000D+00  E=-6.485675D-01
              MO Center=  5.9D-01, -7.0D-02, -2.0D-01, r^2= 6.6D+00
   Bfn.  Coefficient  Atom+Function         Bfn.  Coefficient  Atom+Function  
  ----- ------------  ---------------      ----- ------------  ---------------
   112      0.262510  13 O  py               20     -0.170148   3 C  s         

 Vector   24  Occ=2.000000D+00  E=-6.142023D-01
              MO Center=  2.9D-02, -6.6D-01, -2.0D-01, r^2= 5.2D+00
   Bfn.  Coefficient  Atom+Function         Bfn.  Coefficient  Atom+Function  
  ----- ------------  ---------------      ----- ------------  ---------------
    57      0.209236   7 C  px               85     -0.177350  10 O  py        
    48     -0.163302   6 C  px        

 Vector   25  Occ=2.000000D+00  E=-5.911259D-01
              MO Center=  9.3D-02, -2.8D-01, -2.0D-01, r^2= 6.4D+00
   Bfn.  Coefficient  Atom+Function         Bfn.  Coefficient  Atom+Function  
  ----- ------------  ---------------      ----- ------------  ---------------
   112      0.186719  13 O  py               85     -0.181711  10 O  py        
    58     -0.172332   7 C  py               94      0.171972  11 C  py        

 Vector   26  Occ=2.000000D+00  E=-5.330745D-01
              MO Center=  8.0D-02, -1.0D+00, -3.7D-02, r^2= 6.6D+00
   Bfn.  Coefficient  Atom+Function         Bfn.  Coefficient  Atom+Function  
  ----- ------------  ---------------      ----- ------------  ---------------
    94      0.195602  11 C  py               13     -0.185127   2 C  py        
    22      0.183579   3 C  py               85     -0.180578  10 O  py        
   114      0.162130  13 O  s                48      0.156548   6 C  px        
   124     -0.155287  17 H  s         

 Vector   27  Occ=2.000000D+00  E=-5.134451D-01
              MO Center=  2.3D-01, -6.8D-01, -6.6D-02, r^2= 6.3D+00
   Bfn.  Coefficient  Atom+Function         Bfn.  Coefficient  Atom+Function  
  ----- ------------  ---------------      ----- ------------  ---------------
    69      0.215903   8 O  s                57     -0.187233   7 C  px        
   111     -0.180909  13 O  px                4     -0.173115   1 C  py        
    30      0.170983   4 C  px               12      0.160339   2 C  px        
    49      0.158132   6 C  py        

 Vector   28  Occ=2.000000D+00  E=-4.977441D-01
              MO Center=  5.2D-01,  2.2D+00,  8.3D-02, r^2= 3.4D+00
   Bfn.  Coefficient  Atom+Function         Bfn.  Coefficient  Atom+Function  
  ----- ------------  ---------------      ----- ------------  ---------------
   103      0.302925  12 C  py               40     -0.232442   5 C  py        
    76      0.226042   9 O  py              113     -0.201427  13 O  pz        
    42     -0.174884   5 C  s                41      0.167739   5 C  pz        
   107      0.165718  12 C  py              105      0.158320  12 C  s         

 Vector   29  Occ=2.000000D+00  E=-4.931486D-01
              MO Center=  2.1D-01, -8.1D-02, -1.1D-03, r^2= 7.4D+00
   Bfn.  Coefficient  Atom+Function         Bfn.  Coefficient  Atom+Function  
  ----- ------------  ---------------      ----- ------------  ---------------
    78      0.211603   9 O  s                30     -0.186995   4 C  px        
    97      0.173027  11 C  px               85      0.166657  10 O  py        
    77      0.161517   9 O  pz               93      0.154871  11 C  px        
   113     -0.151172  13 O  pz              126     -0.151137  18 H  s         

 Vector   30  Occ=2.000000D+00  E=-4.800041D-01
              MO Center=  4.3D-01,  2.1D-01,  1.7D-01, r^2= 6.7D+00
   Bfn.  Coefficient  Atom+Function         Bfn.  Coefficient  Atom+Function  
  ----- ------------  ---------------      ----- ------------  ---------------
    78      0.266590   9 O  s                77      0.208317   9 O  pz        
    51      0.196327   6 C  s                22     -0.167307   3 C  py        
   112      0.160010  13 O  py              113     -0.152905  13 O  pz        
    30      0.151030   4 C  px        

 Vector   31  Occ=2.000000D+00  E=-4.757334D-01
              MO Center= -1.3D+00, -3.8D-01, -6.1D-03, r^2= 6.5D+00
   Bfn.  Coefficient  Atom+Function         Bfn.  Coefficient  Atom+Function  
  ----- ------------  ---------------      ----- ------------  ---------------
    69      0.295696   8 O  s                84      0.234312  10 O  px        
    66     -0.223896   8 O  px               87      0.208170  10 O  s         
    67     -0.198270   8 O  py               65      0.176601   8 O  s         
    92     -0.164994  11 C  s         

 Vector   32  Occ=2.000000D+00  E=-4.656944D-01
              MO Center= -1.3D+00,  7.9D-02, -2.4D-02, r^2= 4.7D+00
   Bfn.  Coefficient  Atom+Function         Bfn.  Coefficient  Atom+Function  
  ----- ------------  ---------------      ----- ------------  ---------------
    86      0.296168  10 O  pz               95      0.294229  11 C  pz        
    68      0.235064   8 O  pz               90      0.185572  10 O  pz        
    99      0.163839  11 C  pz        

 Vector   33  Occ=2.000000D+00  E=-4.609473D-01
              MO Center=  3.0D-01,  9.6D-01, -2.5D-02, r^2= 7.6D+00
   Bfn.  Coefficient  Atom+Function         Bfn.  Coefficient  Atom+Function  
  ----- ------------  ---------------      ----- ------------  ---------------
    39      0.260178   5 C  px              102      0.216349  12 C  px        
     3      0.156648   1 C  px               75      0.155272   9 O  px        

 Vector   34  Occ=2.000000D+00  E=-4.517587D-01
              MO Center=  6.0D-01, -1.1D+00, -4.6D-02, r^2= 5.8D+00
   Bfn.  Coefficient  Atom+Function         Bfn.  Coefficient  Atom+Function  
  ----- ------------  ---------------      ----- ------------  ---------------
     4      0.243579   1 C  py               12      0.234998   2 C  px        
   122      0.200091  16 H  s                13      0.185396   2 C  py        
   120     -0.183440  15 H  s                 3      0.178012   1 C  px        
    49     -0.160942   6 C  py              123      0.154312  16 H  s         

 Vector   35  Occ=2.000000D+00  E=-4.136678D-01
              MO Center= -4.0D-01,  9.7D-01, -9.0D-03, r^2= 9.9D+00
   Bfn.  Coefficient  Atom+Function         Bfn.  Coefficient  Atom+Function  
  ----- ------------  ---------------      ----- ------------  ---------------
    41      0.251894   5 C  pz               66     -0.238337   8 O  px        
    84     -0.188868  10 O  px              130      0.177346  20 H  s         

 Vector   36  Occ=2.000000D+00  E=-4.104557D-01
              MO Center=  4.5D-01,  9.3D-01,  2.9D-01, r^2= 7.1D+00
   Bfn.  Coefficient  Atom+Function         Bfn.  Coefficient  Atom+Function  
  ----- ------------  ---------------      ----- ------------  ---------------
    77      0.314665   9 O  pz               41      0.208618   5 C  pz        
   104     -0.203286  12 C  pz              113      0.184200  13 O  pz        
    81      0.176915   9 O  pz        

 Vector   37  Occ=2.000000D+00  E=-4.070378D-01
              MO Center= -2.8D-01,  1.1D+00, -3.1D-02, r^2= 8.8D+00
   Bfn.  Coefficient  Atom+Function         Bfn.  Coefficient  Atom+Function  
  ----- ------------  ---------------      ----- ------------  ---------------
    40      0.213364   5 C  py               84      0.194571  10 O  px        
    41      0.192804   5 C  pz               66      0.188025   8 O  px        
   130      0.184524  20 H  s                22     -0.160419   3 C  py        
   131      0.150552  20 H  s         

 Vector   38  Occ=2.000000D+00  E=-3.963855D-01
              MO Center=  6.9D-01,  8.0D-01, -1.6D-01, r^2= 8.3D+00
   Bfn.  Coefficient  Atom+Function         Bfn.  Coefficient  Atom+Function  
  ----- ------------  ---------------      ----- ------------  ---------------
    39      0.264937   5 C  px              111     -0.257077  13 O  px        
    21      0.209193   3 C  px                3     -0.185281   1 C  px        
    30     -0.178172   4 C  px              115     -0.153809  13 O  px        
    75     -0.152339   9 O  px        

 Vector   39  Occ=2.000000D+00  E=-3.823521D-01
              MO Center=  7.0D-01, -1.2D+00, -1.6D-02, r^2= 6.2D+00
   Bfn.  Coefficient  Atom+Function         Bfn.  Coefficient  Atom+Function  
  ----- ------------  ---------------      ----- ------------  ---------------
    31      0.213773   4 C  py               23      0.197253   3 C  pz        
    14      0.187755   2 C  pz                4      0.185730   1 C  py        
    50      0.172285   6 C  pz        

 Vector   40  Occ=2.000000D+00  E=-3.722110D-01
              MO Center=  4.9D-01, -1.7D-01,  2.0D-01, r^2= 7.9D+00
   Bfn.  Coefficient  Atom+Function         Bfn.  Coefficient  Atom+Function  
  ----- ------------  ---------------      ----- ------------  ---------------
    75      0.268254   9 O  px               21      0.204440   3 C  px        
    30     -0.196362   4 C  px                3     -0.191504   1 C  px        
    57     -0.187599   7 C  px              102      0.178574  12 C  px        
    79      0.171638   9 O  px               12      0.151105   2 C  px        

 Vector   41  Occ=2.000000D+00  E=-3.685711D-01
              MO Center=  6.6D-01, -5.3D-01, -8.7D-02, r^2= 6.1D+00
   Bfn.  Coefficient  Atom+Function         Bfn.  Coefficient  Atom+Function  
  ----- ------------  ---------------      ----- ------------  ---------------
   113      0.246727  13 O  pz               32     -0.184908   4 C  pz        
     5     -0.180508   1 C  pz              112     -0.174176  13 O  py        
   117      0.171470  13 O  pz               22     -0.167920   3 C  py        
    13     -0.164621   2 C  py               49     -0.161644   6 C  py        

 Vector   42  Occ=2.000000D+00  E=-3.274054D-01
              MO Center= -2.1D+00, -2.5D-02, -1.5D-01, r^2= 2.7D+00
   Bfn.  Coefficient  Atom+Function         Bfn.  Coefficient  Atom+Function  
  ----- ------------  ---------------      ----- ------------  ---------------
    86      0.453120  10 O  pz               68     -0.392347   8 O  pz        
    90      0.352416  10 O  pz               72     -0.276437   8 O  pz        
    85      0.157192  10 O  py        

 Vector   43  Occ=2.000000D+00  E=-3.158648D-01
              MO Center=  5.9D-01,  9.7D-01,  1.4D-02, r^2= 3.2D+00
   Bfn.  Coefficient  Atom+Function         Bfn.  Coefficient  Atom+Function  
  ----- ------------  ---------------      ----- ------------  ---------------
   111      0.491745  13 O  px              115      0.363299  13 O  px        
    75     -0.357963   9 O  px               79     -0.259930   9 O  px        

 Vector   44  Occ=2.000000D+00  E=-2.908940D-01
              MO Center= -2.4D+00, -6.1D-01,  1.6D-01, r^2= 2.6D+00
   Bfn.  Coefficient  Atom+Function         Bfn.  Coefficient  Atom+Function  
  ----- ------------  ---------------      ----- ------------  ---------------
    67      0.479295   8 O  py               71      0.317435   8 O  py        
    66     -0.310583   8 O  px               51      0.273861   6 C  s         
    85      0.227753  10 O  py               98      0.219286  11 C  py        
    89      0.212826  10 O  py               87     -0.203538  10 O  s         
    52     -0.199601   6 C  px               70     -0.191088   8 O  px        

 Vector   45  Occ=2.000000D+00  E=-2.840948D-01
              MO Center=  5.8D-01,  1.6D+00,  9.6D-01, r^2= 2.8D+00
   Bfn.  Coefficient  Atom+Function         Bfn.  Coefficient  Atom+Function  
  ----- ------------  ---------------      ----- ------------  ---------------
    76      0.568319   9 O  py               80      0.370597   9 O  py        
    42     -0.234987   5 C  s               114      0.218648  13 O  s         
   117      0.190926  13 O  pz              113      0.182571  13 O  pz        
   107      0.167860  12 C  py               40      0.158518   5 C  py        

 Vector   46  Occ=2.000000D+00  E=-2.754838D-01
              MO Center=  4.0D-01, -1.4D+00, -5.7D-02, r^2= 4.0D+00
   Bfn.  Coefficient  Atom+Function         Bfn.  Coefficient  Atom+Function  
  ----- ------------  ---------------      ----- ------------  ---------------
    50      0.326298   6 C  pz               32     -0.296934   4 C  pz        
    54      0.237343   6 C  pz               14     -0.215387   2 C  pz        
    36     -0.209919   4 C  pz                5      0.204753   1 C  pz        
    68     -0.204333   8 O  pz               72     -0.150544   8 O  pz        

 Vector   47  Occ=2.000000D+00  E=-2.654767D-01
              MO Center=  7.7D-01, -1.3D+00, -1.0D-01, r^2= 3.7D+00
   Bfn.  Coefficient  Atom+Function         Bfn.  Coefficient  Atom+Function  
  ----- ------------  ---------------      ----- ------------  ---------------
    59      0.308552   7 C  pz               23     -0.299625   3 C  pz        
    14      0.248538   2 C  pz                5     -0.236730   1 C  pz        
    27     -0.216362   3 C  pz               18      0.187869   2 C  pz        
   113     -0.182428  13 O  pz               63      0.180622   7 C  pz        
     9     -0.170345   1 C  pz        

 Vector   48  Occ=0.000000D+00  E=-6.008583D-02
              MO Center= -4.1D-01, -1.1D+00, -5.0D-02, r^2= 5.0D+00
   Bfn.  Coefficient  Atom+Function         Bfn.  Coefficient  Atom+Function  
  ----- ------------  ---------------      ----- ------------  ---------------
    36      0.321422   4 C  pz               95      0.312404  11 C  pz        
    54      0.288157   6 C  pz               32      0.274434   4 C  pz        
     9     -0.258705   1 C  pz               68     -0.259714   8 O  pz        
    72     -0.253763   8 O  pz               99      0.240283  11 C  pz        
    50      0.227698   6 C  pz               59     -0.227449   7 C  pz        

 Vector   49  Occ=0.000000D+00  E=-1.950544D-02
              MO Center=  8.0D-01, -1.1D+00, -3.6D-02, r^2= 4.4D+00
   Bfn.  Coefficient  Atom+Function         Bfn.  Coefficient  Atom+Function  
  ----- ------------  ---------------      ----- ------------  ---------------
    18      0.395433   2 C  pz                9      0.384803   1 C  pz        
    27     -0.368061   3 C  pz               63     -0.343246   7 C  pz        
    59     -0.322242   7 C  pz               14      0.302183   2 C  pz        
     5      0.294958   1 C  pz               23     -0.278397   3 C  pz        
   105      0.174026  12 C  s                62     -0.163781   7 C  py        

 Vector   50  Occ=0.000000D+00  E=-8.635967D-03
              MO Center=  6.5D-01,  1.7D+00,  3.9D-01, r^2= 3.3D+00
   Bfn.  Coefficient  Atom+Function         Bfn.  Coefficient  Atom+Function  
  ----- ------------  ---------------      ----- ------------  ---------------
   102      0.544829  12 C  px              106      0.471351  12 C  px        
    79     -0.388488   9 O  px               75     -0.383192   9 O  px        
   129      0.308966  19 H  s               133     -0.304295  21 H  s         
   111     -0.222581  13 O  px               61     -0.202487   7 C  px        
    15      0.198025   2 C  s                51     -0.186209   6 C  s         

 Vector   51  Occ=0.000000D+00  E= 4.330317D-02
              MO Center= -3.4D-01, -1.1D+00, -4.2D-02, r^2= 5.7D+00
   Bfn.  Coefficient  Atom+Function         Bfn.  Coefficient  Atom+Function  
  ----- ------------  ---------------      ----- ------------  ---------------
    36      0.446388   4 C  pz               95     -0.435068  11 C  pz        
    99     -0.424677  11 C  pz               27     -0.334674   3 C  pz        
    18     -0.304112   2 C  pz               54      0.303823   6 C  pz        
    32      0.283910   4 C  pz               72      0.277060   8 O  pz        
    68      0.250423   8 O  pz               50      0.243073   6 C  pz        

 Vector   52  Occ=0.000000D+00  E= 6.398925D-02
              MO Center= -2.6D+00,  8.6D-01, -3.5D-01, r^2= 4.9D+00
   Bfn.  Coefficient  Atom+Function         Bfn.  Coefficient  Atom+Function  
  ----- ------------  ---------------      ----- ------------  ---------------
   119      1.358899  14 H  s                87     -0.787724  10 O  s         
    96      0.462625  11 C  s                88      0.456718  10 O  px        
    52      0.438319   6 C  px               60     -0.388542   7 C  s         
    42     -0.336196   5 C  s               129      0.317175  19 H  s         
    51     -0.286154   6 C  s                84      0.285712  10 O  px        

 Vector   53  Occ=0.000000D+00  E= 8.492307D-02
              MO Center=  1.4D+00, -1.5D+00, -1.0D-01, r^2= 9.6D+00
   Bfn.  Coefficient  Atom+Function         Bfn.  Coefficient  Atom+Function  
  ----- ------------  ---------------      ----- ------------  ---------------
   127      0.990253  18 H  s               123      0.853143  16 H  s         
    33     -0.790082   4 C  s               125      0.789763  17 H  s         
    24     -0.672276   3 C  s                15     -0.555654   2 C  s         
   121      0.537191  15 H  s                 6     -0.477466   1 C  s         
    34     -0.394331   4 C  px               42      0.389493   5 C  s         

 Vector   54  Occ=0.000000D+00  E= 1.103245D-01
              MO Center=  6.4D-01,  3.0D+00, -3.6D-01, r^2= 6.4D+00
   Bfn.  Coefficient  Atom+Function         Bfn.  Coefficient  Atom+Function  
  ----- ------------  ---------------      ----- ------------  ---------------
    42      2.151117   5 C  s               133     -1.203167  21 H  s         
   131     -0.900931  20 H  s               129     -0.881070  19 H  s         
   105     -0.749707  12 C  s               114      0.455685  13 O  s         
   123     -0.429661  16 H  s               119      0.329384  14 H  s         
    16      0.326926   2 C  px               44      0.302064   5 C  py        

 Vector   55  Occ=0.000000D+00  E= 1.316144D-01
              MO Center=  9.7D-01, -7.1D-01,  2.2D-02, r^2= 1.3D+01
   Bfn.  Coefficient  Atom+Function         Bfn.  Coefficient  Atom+Function  
  ----- ------------  ---------------      ----- ------------  ---------------
   125      1.210299  17 H  s                24     -0.982613   3 C  s         
   123     -0.888597  16 H  s               131      0.676976  20 H  s         
    45     -0.588262   5 C  pz              133     -0.560023  21 H  s         
   121      0.550451  15 H  s                26      0.546143   3 C  py        
    15      0.534355   2 C  s               114     -0.474081  13 O  s         

 Vector   56  Occ=0.000000D+00  E= 1.389521D-01
              MO Center=  7.3D-01, -3.0D-01, -1.8D-01, r^2= 1.2D+01
   Bfn.  Coefficient  Atom+Function         Bfn.  Coefficient  Atom+Function  
  ----- ------------  ---------------      ----- ------------  ---------------
   123      0.968427  16 H  s               121     -0.941489  15 H  s         
   129     -0.769463  19 H  s               127      0.749505  18 H  s         
    33     -0.737157   4 C  s                24      0.684720   3 C  s         
     6      0.664268   1 C  s                15     -0.648935   2 C  s         
     7     -0.566449   1 C  px               45     -0.509380   5 C  pz        

 Vector   57  Occ=0.000000D+00  E= 1.511827D-01
              MO Center=  4.2D-01, -7.0D-01,  2.7D-03, r^2= 7.5D+00
   Bfn.  Coefficient  Atom+Function         Bfn.  Coefficient  Atom+Function  
  ----- ------------  ---------------      ----- ------------  ---------------
   105      0.834000  12 C  s               131     -0.616435  20 H  s         
    33      0.540013   4 C  s                54      0.525748   6 C  pz        
   127     -0.516554  18 H  s                44      0.482381   5 C  py        
     9     -0.476758   1 C  pz               27      0.417213   3 C  pz        
   121      0.395502  15 H  s                36     -0.383988   4 C  pz        

 Vector   58  Occ=0.000000D+00  E= 1.598198D-01
              MO Center=  7.9D-01,  6.8D-01,  1.7D-01, r^2= 1.4D+01
   Bfn.  Coefficient  Atom+Function         Bfn.  Coefficient  Atom+Function  
  ----- ------------  ---------------      ----- ------------  ---------------
   131      1.285990  20 H  s                 6     -0.927877   1 C  s         
   127     -0.891725  18 H  s               121      0.826122  15 H  s         
    45     -0.722468   5 C  pz               15     -0.715458   2 C  s         
   123      0.700409  16 H  s                33      0.627261   4 C  s         
    96      0.555477  11 C  s                44     -0.524959   5 C  py        

 Vector   59  Occ=0.000000D+00  E= 1.675040D-01
              MO Center=  1.3D+00,  4.9D-01, -3.0D-01, r^2= 1.3D+01
   Bfn.  Coefficient  Atom+Function         Bfn.  Coefficient  Atom+Function  
  ----- ------------  ---------------      ----- ------------  ---------------
   127      1.203004  18 H  s               129      1.066319  19 H  s         
    16      0.923810   2 C  px               43      0.898316   5 C  px        
   123     -0.865105  16 H  s               125     -0.839183  17 H  s         
   133     -0.842693  21 H  s                34     -0.829368   4 C  px        
    33     -0.768924   4 C  s                62     -0.613467   7 C  py        

 Vector   60  Occ=0.000000D+00  E= 1.751819D-01
              MO Center=  9.6D-01,  1.5D+00, -4.4D-01, r^2= 1.2D+01
   Bfn.  Coefficient  Atom+Function         Bfn.  Coefficient  Atom+Function  
  ----- ------------  ---------------      ----- ------------  ---------------
   133      1.195048  21 H  s               129     -1.110261  19 H  s         
    43     -1.044395   5 C  px              123     -0.903786  16 H  s         
   127      0.792404  18 H  s               125     -0.709909  17 H  s         
    16      0.685284   2 C  px               34     -0.603923   4 C  px        
    26     -0.582939   3 C  py               62     -0.562632   7 C  py        

 Vector   61  Occ=0.000000D+00  E= 1.858483D-01
              MO Center=  1.8D-01, -1.2D+00,  2.6D-01, r^2= 1.1D+01
   Bfn.  Coefficient  Atom+Function         Bfn.  Coefficient  Atom+Function  
  ----- ------------  ---------------      ----- ------------  ---------------
   121      1.337846  15 H  s               105      1.082663  12 C  s         
   125     -1.058663  17 H  s                15     -0.916905   2 C  s         
    24      0.920887   3 C  s                 8      0.860132   1 C  py        
    60      0.857626   7 C  s                26     -0.731387   3 C  py        
    35      0.685671   4 C  py               52     -0.622007   6 C  px        

 Vector   62  Occ=0.000000D+00  E= 2.179221D-01
              MO Center=  1.6D-01,  6.0D-01, -1.1D-01, r^2= 7.3D+00
   Bfn.  Coefficient  Atom+Function         Bfn.  Coefficient  Atom+Function  
  ----- ------------  ---------------      ----- ------------  ---------------
   105      1.824793  12 C  s                96      1.369066  11 C  s         
    15      0.853039   2 C  s                 6      0.809711   1 C  s         
    60     -0.766408   7 C  s                52      0.665191   6 C  px        
    44      0.602318   5 C  py               24     -0.562580   3 C  s         
   121     -0.535399  15 H  s                78     -0.528555   9 O  s         

 Vector   63  Occ=0.000000D+00  E= 2.342599D-01
              MO Center= -4.8D-01, -3.3D-01, -1.4D-01, r^2= 7.2D+00
   Bfn.  Coefficient  Atom+Function         Bfn.  Coefficient  Atom+Function  
  ----- ------------  ---------------      ----- ------------  ---------------
    96      1.988976  11 C  s                33     -1.231769   4 C  s         
    60      1.170191   7 C  s                51     -1.113770   6 C  s         
    24      0.892311   3 C  s               105     -0.887203  12 C  s         
    69     -0.810879   8 O  s                 6      0.784179   1 C  s         
    42      0.677009   5 C  s                17     -0.659251   2 C  py        

 Vector   64  Occ=0.000000D+00  E= 2.429205D-01
              MO Center=  2.3D-01,  1.1D+00, -1.0D-01, r^2= 8.4D+00
   Bfn.  Coefficient  Atom+Function         Bfn.  Coefficient  Atom+Function  
  ----- ------------  ---------------      ----- ------------  ---------------
    60      1.710292   7 C  s                42     -1.590040   5 C  s         
   107      1.329721  12 C  py               44      1.250864   5 C  py        
   105      1.020561  12 C  s                16      0.779109   2 C  px        
    26      0.642208   3 C  py               33     -0.614435   4 C  s         
    51     -0.590767   6 C  s               125      0.589949  17 H  s         

 Vector   65  Occ=0.000000D+00  E= 2.614752D-01
              MO Center=  4.6D-02,  7.9D-01, -3.9D-02, r^2= 6.8D+00
   Bfn.  Coefficient  Atom+Function         Bfn.  Coefficient  Atom+Function  
  ----- ------------  ---------------      ----- ------------  ---------------
   107      1.361500  12 C  py               42     -1.226747   5 C  s         
    60     -1.042259   7 C  s                44      0.959363   5 C  py        
     6      0.865297   1 C  s                62      0.761265   7 C  py        
    16     -0.702655   2 C  px               53      0.679418   6 C  py        
   123      0.630906  16 H  s                78      0.601989   9 O  s         

 Vector   66  Occ=0.000000D+00  E= 2.845686D-01
              MO Center= -1.4D-01, -1.4D+00,  3.3D-02, r^2= 7.3D+00
   Bfn.  Coefficient  Atom+Function         Bfn.  Coefficient  Atom+Function  
  ----- ------------  ---------------      ----- ------------  ---------------
    33      2.127023   4 C  s                 6     -1.513637   1 C  s         
    96      1.520780  11 C  s                25     -1.447166   3 C  px        
    17      1.117496   2 C  py               69     -1.095213   8 O  s         
    34     -1.008737   4 C  px               97     -0.955651  11 C  px        
    51      0.767411   6 C  s                 7     -0.721254   1 C  px        

 Vector   67  Occ=0.000000D+00  E= 3.169611D-01
              MO Center=  9.3D-01, -1.5D+00,  5.4D-02, r^2= 6.5D+00
   Bfn.  Coefficient  Atom+Function         Bfn.  Coefficient  Atom+Function  
  ----- ------------  ---------------      ----- ------------  ---------------
    24      2.766955   3 C  s                 7     -1.536424   1 C  px        
    35      1.445553   4 C  py               15     -1.378383   2 C  s         
    60     -1.318738   7 C  s                53      1.145542   6 C  py        
    17      1.104905   2 C  py               26      1.102179   3 C  py        
    34      0.991041   4 C  px                8      0.951237   1 C  py        

 Vector   68  Occ=0.000000D+00  E= 3.200496D-01
              MO Center=  2.3D-01, -1.2D+00, -9.2D-03, r^2= 6.5D+00
   Bfn.  Coefficient  Atom+Function         Bfn.  Coefficient  Atom+Function  
  ----- ------------  ---------------      ----- ------------  ---------------
    15      2.233121   2 C  s                 8      1.710544   1 C  py        
    53      1.582699   6 C  py               51     -1.544658   6 C  s         
     6      1.469829   1 C  s                97     -1.367056  11 C  px        
    60     -1.218271   7 C  s                16     -1.131937   2 C  px        
    35     -1.112714   4 C  py               69     -1.036629   8 O  s         

 Vector   69  Occ=0.000000D+00  E= 3.464680D-01
              MO Center=  5.3D-01,  1.3D+00,  3.9D-01, r^2= 5.7D+00
   Bfn.  Coefficient  Atom+Function         Bfn.  Coefficient  Atom+Function  
  ----- ------------  ---------------      ----- ------------  ---------------
   108      2.470454  12 C  pz               78     -1.795839   9 O  s         
    60      1.522641   7 C  s                51      1.352526   6 C  s         
     8     -0.873069   1 C  py              116      0.798941  13 O  py        
     6     -0.776889   1 C  s                53     -0.766258   6 C  py        
    45     -0.753426   5 C  pz               17     -0.716294   2 C  py        

 Vector   70  Occ=0.000000D+00  E= 3.622929D-01
              MO Center= -3.3D-01, -4.7D-01, -1.3D-01, r^2= 5.8D+00
   Bfn.  Coefficient  Atom+Function         Bfn.  Coefficient  Atom+Function  
  ----- ------------  ---------------      ----- ------------  ---------------
    51      2.686377   6 C  s                97     -1.887086  11 C  px        
    33     -1.590752   4 C  s                17     -1.445145   2 C  py        
    52     -1.449512   6 C  px               96     -1.236045  11 C  s         
    61      1.087566   7 C  px               35     -0.758930   4 C  py        
    98      0.748065  11 C  py               53      0.738541   6 C  py        

 Vector   71  Occ=0.000000D+00  E= 3.936259D-01
              MO Center= -1.5D-02, -1.1D+00, -5.0D-02, r^2= 6.6D+00
   Bfn.  Coefficient  Atom+Function         Bfn.  Coefficient  Atom+Function  
  ----- ------------  ---------------      ----- ------------  ---------------
    51      2.380252   6 C  s                 6      2.278181   1 C  s         
    60     -2.163151   7 C  s                25      2.011601   3 C  px        
    69     -1.466354   8 O  s                97     -1.387872  11 C  px        
    98     -1.376738  11 C  py               53      1.303874   6 C  py        
    61      1.271680   7 C  px               35      1.133332   4 C  py        

 Vector   72  Occ=0.000000D+00  E= 4.914301D-01
              MO Center= -8.4D-02, -9.6D-01, -2.0D-01, r^2= 5.1D+00
   Bfn.  Coefficient  Atom+Function         Bfn.  Coefficient  Atom+Function  
  ----- ------------  ---------------      ----- ------------  ---------------
     6      1.931569   1 C  s                15     -1.811649   2 C  s         
    33      1.598993   4 C  s                53      1.594108   6 C  py        
    24     -1.523433   3 C  s                62     -1.243208   7 C  py        
     8      1.187750   1 C  py               16      1.144628   2 C  px        
    34     -1.148273   4 C  px               26     -1.105938   3 C  py        

 Vector   73  Occ=0.000000D+00  E= 4.985333D-01
              MO Center= -1.5D-01,  1.7D-01,  8.5D-02, r^2= 6.3D+00
   Bfn.  Coefficient  Atom+Function         Bfn.  Coefficient  Atom+Function  
  ----- ------------  ---------------      ----- ------------  ---------------
    53      2.107295   6 C  py               61      2.092884   7 C  px        
     8      1.651183   1 C  py               16      1.470048   2 C  px        
     6      1.449617   1 C  s                34     -1.397534   4 C  px        
    15     -1.321218   2 C  s                24     -1.287210   3 C  s         
    25     -1.119439   3 C  px               33      1.084453   4 C  s         

 Vector   74  Occ=0.000000D+00  E= 5.083879D-01
              MO Center=  7.8D-01, -7.0D-01, -6.6D-03, r^2= 6.6D+00
   Bfn.  Coefficient  Atom+Function         Bfn.  Coefficient  Atom+Function  
  ----- ------------  ---------------      ----- ------------  ---------------
     6      2.483920   1 C  s                53      2.326358   6 C  py        
    15     -2.259267   2 C  s                24     -1.982312   3 C  s         
    33      1.980493   4 C  s                34     -1.836624   4 C  px        
     8      1.767048   1 C  py               16      1.676301   2 C  px        
    61      1.667796   7 C  px               26     -1.595673   3 C  py        


------------------------------------------------------------
EAF file 0: "./molecule.aoints.0" size=268959744 bytes
------------------------------------------------------------
               write      read    awrite     aread      wait
               -----      ----    ------     -----      ----
     calls:      513         9         0      4608      4608
   data(b): 2.69e+08  4.72e+06  0.00e+00  2.42e+09
   time(s): 0.00e+00  0.00e+00  0.00e+00  0.00e+00  0.00e+00
rate(mb/s): 0.00e+00  0.00e+00
------------------------------------------------------------


 center of mass
 --------------
 x =  -0.04314512 y =  -0.02902200 z =   0.01110773

 moments of inertia (a.u.)
 ------------------
        2352.901860332041          -0.000000000000          -0.000000000001
          -0.000000000000        1663.594209381265          -0.000000000000
          -0.000000000001          -0.000000000000        3584.992328006921

     Multipole analysis of the density
     ---------------------------------

     L   x y z        total         alpha         beta         nuclear
     -   - - -        -----         -----         ----         -------
     0   0 0 0      0.000000    -47.000000    -47.000000     94.000000

     1   1 0 0      0.607737      0.303869      0.303869      0.000000
     1   0 1 0      0.162227      0.081113      0.081113      0.000000
     1   0 0 1     -0.710802     -0.355401     -0.355401      0.000000

     2   2 0 0    -51.841540   -415.092764   -415.092764    778.343988
     2   1 1 0     -6.238210      2.453036      2.453036    -11.144281
     2   1 0 1     -0.303294      1.445310      1.445310     -3.193915
     2   0 2 0    -45.777435   -623.388293   -623.388293   1200.999151
     2   0 1 1     -2.476279      4.594257      4.594257    -11.664794
     2   0 0 2    -60.289308    -86.697133    -86.697133    113.104957


 Parallel integral file used     513 records with       0 large values



                            NWChem DFT Gradient Module
                            --------------------------


                                      aspirin



  charge          =   0.00
  wavefunction    = closed shell



                         DFT ENERGY GRADIENTS

    atom               coordinates                        gradient
                 x          y          z           x          y          z
   1 C      -0.650139  -4.295548   0.500076   -0.004813   0.008979  -0.001551
   2 C       3.615743  -1.502803  -0.831483    0.000551  -0.000509  -0.000834
   3 C       1.731667  -5.439695   0.483952    0.006631   0.004271  -0.002353
   4 C       3.861124  -4.044614  -0.187774   -0.004476   0.000956   0.000819
   5 C       1.000090   6.479256  -0.368133    0.000380  -0.005603  -0.007619
   6 C      -0.935130  -1.736564  -0.148713    0.008240   0.002398  -0.001505
   7 C       1.232212  -0.353329  -0.782527   -0.012607   0.022835   0.010258
   8 O      -5.422301  -1.905059   0.511355    0.026446   0.022613  -0.010605
   9 O       1.428918   3.224292   2.793254   -0.000293   0.014258  -0.000177
  10 O      -3.773641   1.688953  -0.891303    0.008234  -0.023153   0.004973
  11 C      -3.550662  -0.720157  -0.119767   -0.039060   0.010845   0.001307
  12 C       1.214080   3.813192   0.566682    0.003595  -0.039551   0.003136
  13 O       1.144887   2.187041  -1.494997   -0.001437   0.003271  -0.011783
  14 H      -5.592902   2.010836  -0.747421    0.004018  -0.012329   0.003636
  15 H      -2.293337  -5.420800   1.020847   -0.000442  -0.006181   0.001843
  16 H       5.277622  -0.416879  -1.355515    0.003845  -0.001816  -0.000159
  17 H       1.918250  -7.421507   0.994469    0.000813  -0.001957   0.000451
  18 H       5.711706  -4.936535  -0.205173    0.001093  -0.001265   0.000345
  19 H      -0.777768   6.724881  -1.390063   -0.002007   0.000647   0.004279
  20 H       1.012005   7.772571   1.245956   -0.000701   0.002108   0.001020
  21 H       2.607604   6.927176  -1.583443    0.001989  -0.000820   0.004518

                 ----------------------------------------
                 |  Time  |  1-e(secs)   |  2-e(secs)   |
                 ----------------------------------------
                 |  CPU   |       0.07   |      17.77   |
                 ----------------------------------------
                 |  WALL  |       0.07   |      17.77   |
                 ----------------------------------------

@ Step       Energy      Delta E   Gmax     Grms     Xrms     Xmax   Walltime
@ ---- ---------------- -------- -------- -------- -------- -------- --------
@    0    -648.48659098  0.0D+00  0.03735  0.00694  0.00000  0.00000    113.0
                                                                    



                                Z-matrix (autoz)
                                -------- 

 Units are Angstrom for bonds and degrees for angles

      Type          Name      I     J     K     L     M      Value     Gradient
      ----------- --------  ----- ----- ----- ----- ----- ---------- ----------
    1 Stretch                  1     3                       1.39830    0.00356
    2 Stretch                  1     6                       1.40512   -0.00159
    3 Stretch                  1    15                       1.08932    0.00420
    4 Stretch                  2     4                       1.39359   -0.00329
    5 Stretch                  2     7                       1.40056    0.00421
    6 Stretch                  2    16                       1.08651    0.00219
    7 Stretch                  3     4                       1.39326   -0.00571
    8 Stretch                  3    17                       1.08746    0.00207
    9 Stretch                  4    18                       1.08713    0.00153
   10 Stretch                  5    12                       1.49932   -0.00415
   11 Stretch                  5    19                       1.09291   -0.00031
   12 Stretch                  5    20                       1.09453    0.00211
   13 Stretch                  5    21                       1.09243   -0.00129
   14 Stretch                  6     7                       1.40131   -0.00631
   15 Stretch                  6    11                       1.48499   -0.00040
   16 Stretch                  7    13                       1.39694   -0.02299
   17 Stretch                  8    11                       1.21887   -0.03603
   18 Stretch                  9    12                       1.22406   -0.00383
   19 Stretch                 10    11                       1.34382   -0.03735
   20 Stretch                 10    14                       0.98062   -0.00580
   21 Stretch                 12    13                       1.39000   -0.01379
   22 Bend                     1     3     4               120.07641    0.00097
   23 Bend                     1     3    17               119.86100   -0.00014
   24 Bend                     1     6     7               118.29708   -0.00000
   25 Bend                     1     6    11               116.52421    0.00202
   26 Bend                     2     4     3               119.89551    0.00017
   27 Bend                     2     4    18               120.05964    0.00032
   28 Bend                     2     7     6               120.97359    0.00063
   29 Bend                     2     7    13               116.27901   -0.00140
   30 Bend                     3     1     6               120.83337   -0.00129
   31 Bend                     3     1    15               118.97138   -0.00203
   32 Bend                     3     4    18               120.04468   -0.00049
   33 Bend                     4     2     7               119.90586   -0.00049
   34 Bend                     4     2    16               119.83089   -0.00174
   35 Bend                     4     3    17               120.06254   -0.00083
   36 Bend                     5    12     9               124.34470   -0.00615
   37 Bend                     5    12    13               108.75879   -0.00451
   38 Bend                     6     1    15               120.19508    0.00332
   39 Bend                     6     7    13               122.69678    0.00078
   40 Bend                     6    11     8               125.01994    0.00426
   41 Bend                     6    11    10               114.98063   -0.00241
   42 Bend                     7     2    16               120.26155    0.00223
   43 Bend                     7     6    11               125.17733   -0.00202
   44 Bend                     7    13    12               112.52262   -0.02108
   45 Bend                     8    11    10               119.99502   -0.00186
   46 Bend                     9    12    13               126.89496    0.01066
   47 Bend                    11    10    14               103.14379   -0.01192
   48 Bend                    12     5    19               109.88800    0.00006
   49 Bend                    12     5    20               109.29726    0.00039
   50 Bend                    12     5    21               109.85201   -0.00128
   51 Bend                    19     5    20               108.46529   -0.00111
   52 Bend                    19     5    21               110.68393    0.00236
   53 Bend                    20     5    21               108.61756   -0.00044
   54 Torsion                  1     3     4     2           0.32538    0.00004
   55 Torsion                  1     3     4    18        -179.82507   -0.00003
   56 Torsion                  1     6     7     2           1.58226    0.00034
   57 Torsion                  1     6     7    13         178.89757    0.00059
   58 Torsion                  1     6    11     8           2.95360    0.00035
   59 Torsion                  1     6    11    10        -176.27860    0.00087
   60 Torsion                  2     4     3    17        -179.75449   -0.00000
   61 Torsion                  2     7     6    11        -177.97329    0.00060
   62 Torsion                  2     7    13    12         -96.24341    0.00131
   63 Torsion                  3     1     6     7          -0.75741   -0.00020
   64 Torsion                  3     1     6    11         178.83657   -0.00045
   65 Torsion                  3     4     2     7           0.48892    0.00008
   66 Torsion                  3     4     2    16        -179.98290   -0.00019
   67 Torsion                  4     2     7     6          -1.46663   -0.00033
   68 Torsion                  4     2     7    13        -178.94705   -0.00062
   69 Torsion                  4     3     1     6          -0.18514   -0.00004
   70 Torsion                  4     3     1    15         179.67085   -0.00016
   71 Torsion                  5    12    13     7        -177.58841    0.00010
   72 Torsion                  6     1     3    17         179.89457    0.00001
   73 Torsion                  6     7     2    16         179.00725   -0.00004
   74 Torsion                  6     7    13    12          86.32370    0.00102
   75 Torsion                  6    11    10    14         179.86293   -0.00018
   76 Torsion                  7     2     4    18        -179.36060    0.00015
   77 Torsion                  7     6     1    15         179.38837   -0.00007
   78 Torsion                  7     6    11     8        -177.48378    0.00009
   79 Torsion                  7     6    11    10           3.28402    0.00061
   80 Torsion                  7    13    12     9           2.85199    0.00027
   81 Torsion                  8    11    10    14           0.58895    0.00026
   82 Torsion                  9    12     5    19        -120.54640    0.00099
   83 Torsion                  9    12     5    20          -1.62988   -0.00009
   84 Torsion                  9    12     5    21         117.45096   -0.00115
[...]
   80 Torsion                  7    13    12     9           7.60047    0.00001
   81 Torsion                  8    11    10    14           1.58520   -0.00001
   82 Torsion                  9    12     5    19        -112.41553   -0.00001
   83 Torsion                  9    12     5    20           7.78180    0.00000
   84 Torsion                  9    12     5    21         129.61262   -0.00001
   85 Torsion                 11     6     1    15          -0.94507    0.00000
   86 Torsion                 11     6     7    13          -2.09210   -0.00000
   87 Torsion                 13     7     2    16           2.80459   -0.00001
   88 Torsion                 13    12     5    19          68.09739    0.00000
   89 Torsion                 13    12     5    20        -171.70529    0.00001
   90 Torsion                 13    12     5    21         -49.87447    0.00000
   91 Torsion                 15     1     3    17          -0.08231   -0.00000
   92 Torsion                 16     2     4    18           0.17405    0.00002
   93 Torsion                 17     3     4    18          -0.04236   -0.00001



                         Geometry "geometry" -> "geometry"
                         ---------------------------------

 Output coordinates in angstroms (scale by  1.889725989 to convert to a.u.)

  No.       Tag          Charge          X              Y              Z
 ---- ---------------- ---------- -------------- -------------- --------------
    1 C                    6.0000    -0.32747783    -2.30960018     0.20404873
    2 C                    6.0000     1.99180027    -0.87604421    -0.36565823
    3 C                    6.0000     0.89712278    -2.97057173     0.15885513
    4 C                    6.0000     2.06282071    -2.25055627    -0.13244408
    5 C                    6.0000     0.44350479     3.47791069    -0.27670058
    6 C                    6.0000    -0.42574643    -0.92413895    -0.03838254
    7 C                    6.0000     0.76183078    -0.21765818    -0.31661416
    8 O                    8.0000    -2.80233273    -1.00915619     0.31756719
    9 O                    8.0000     0.40425545     1.84628238     1.54398782
   10 O                    8.0000    -1.89719897     0.97522158    -0.32261291
   11 C                    6.0000    -1.79133504    -0.35901076     0.01487145
   12 C                    6.0000     0.52565848     2.12444333     0.35723991
   13 O                    8.0000     0.78498866     1.15640933    -0.62958603
   14 H                    1.0000    -2.83835901     1.24384975    -0.24404863
   15 H                    1.0000    -1.24359192    -2.84481595     0.42343210
   16 H                    1.0000     2.87769383    -0.29455748    -0.59018758
   17 H                    1.0000     0.94413370    -4.03740941     0.34620046
   18 H                    1.0000     3.02278751    -2.75418962    -0.17240256
   19 H                    1.0000    -0.45272984     3.52092555    -0.90431475
   20 H                    1.0000     0.38992326     4.24375597     0.49714205
   21 H                    1.0000     1.30785965     3.65313923    -0.92330855

      Atomic Mass 
      ----------- 

      C                 12.000000
      O                 15.994910
      H                  1.007825


 Effective nuclear repulsion energy (a.u.)     778.6080674714

            Nuclear Dipole moment (a.u.) 
            ----------------------------
        X                 Y               Z
 ---------------- ---------------- ----------------
     1.4257745482     1.2271829873     6.3091427302


                Final and change from initial internal coordinates
                --------------------------------------------------



                                Z-matrix (autoz)
                                -------- 

 Units are Angstrom for bonds and degrees for angles

      Type          Name      I     J     K     L     M      Value       Change
      ----------- --------  ----- ----- ----- ----- ----- ---------- ----------
    1 Stretch                  1     3                       1.39233   -0.00598
    2 Stretch                  1     6                       1.40994    0.00482
    3 Stretch                  1    15                       1.08344   -0.00588
    4 Stretch                  2     4                       1.39596    0.00237
    5 Stretch                  2     7                       1.39596   -0.00460
    6 Stretch                  2    16                       1.08321   -0.00330
    7 Stretch                  3     4                       1.40076    0.00750
    8 Stretch                  3    17                       1.08418   -0.00328
    9 Stretch                  4    18                       1.08479   -0.00234
   10 Stretch                  5    12                       1.49683   -0.00248
   11 Stretch                  5    19                       1.09498    0.00207
   12 Stretch                  5    20                       1.09006   -0.00447
   13 Stretch                  5    21                       1.09358    0.00115
   14 Stretch                  6     7                       1.40956    0.00825
   15 Stretch                  6    11                       1.47886   -0.00613
   16 Stretch                  7    13                       1.40945    0.01251
   17 Stretch                  8    11                       1.23953    0.02066
   18 Stretch                  9    12                       1.22494    0.00089
   19 Stretch                 10    11                       1.38032    0.03650
   20 Stretch                 10    14                       0.98189    0.00127
   21 Stretch                 12    13                       1.40647    0.01647
   22 Bend                     1     3     4               119.64823   -0.42818
   23 Bend                     1     3    17               119.97741    0.11641
   24 Bend                     1     6     7               117.88658   -0.41050
   25 Bend                     1     6    11               115.70062   -0.82359
   26 Bend                     2     4     3               119.90230    0.00680
   27 Bend                     2     4    18               119.73565   -0.32399
   28 Bend                     2     7     6               120.85593   -0.11766
   29 Bend                     2     7    13               115.94569   -0.33332
   30 Bend                     3     1     6               121.48009    0.64672
   31 Bend                     3     1    15               121.04821    2.07682
   32 Bend                     3     4    18               120.36111    0.31643
   33 Bend                     4     2     7               120.22161    0.31574
   34 Bend                     4     2    16               121.43889    1.60799
   35 Bend                     4     3    17               120.37418    0.31164
   36 Bend                     5    12     9               127.60455    3.25985
   37 Bend                     5    12    13               109.59156    0.83277
   38 Bend                     6     1    15               117.47116   -2.72393
   39 Bend                     6     7    13               123.11334    0.41655
   40 Bend                     6    11     8               124.16070   -0.85924
   41 Bend                     6    11    10               115.55608    0.57545
   42 Bend                     7     2    16               118.33930   -1.92225
   43 Bend                     7     6    11               126.41005    1.23273
   44 Bend                     7    13    12               120.80806    8.28545
   45 Bend                     8    11    10               120.27494    0.27991
   46 Bend                     9    12    13               122.80185   -4.09311
   47 Bend                    11    10    14               108.56607    5.42228
   48 Bend                    12     5    19               108.85627   -1.03173
   49 Bend                    12     5    20               109.71356    0.41631
   50 Bend                    12     5    21               110.60509    0.75308
   51 Bend                    19     5    20               109.82017    1.35487
   52 Bend                    19     5    21               107.56156   -3.12238
   53 Bend                    20     5    21               110.24462    1.62706
   54 Torsion                  1     3     4     2           0.46380    0.13842
   55 Torsion                  1     3     4    18        -179.88889   -0.06382
   56 Torsion                  1     6     7     2           0.76720   -0.81506
   57 Torsion                  1     6     7    13         177.27636   -1.62122
   58 Torsion                  1     6    11     8           3.69342    0.73982
   59 Torsion                  1     6    11    10        -175.25873    1.01987
   60 Torsion                  2     4     3    17        -179.68968    0.06481
   61 Torsion                  2     7     6    11        -178.60125   -0.62797
   62 Torsion                  2     7    13    12        -111.86607  -15.62267
   63 Torsion                  3     1     6     7          -0.64689    0.11052
   64 Torsion                  3     1     6    11         178.78905   -0.04752
   65 Torsion                  3     4     2     7          -0.34303   -0.83196
   66 Torsion                  3     4     2    16         179.82359   -0.19352
   67 Torsion                  4     2     7     6          -0.28526    1.18137
   68 Torsion                  4     2     7    13        -177.03389    1.91317
   69 Torsion                  4     3     1     6           0.04018    0.22532
   70 Torsion                  4     3     1    15         179.76483    0.09399
   71 Torsion                  5    12    13     7        -172.88297    4.70544
   72 Torsion                  6     1     3    17        -179.80696    0.29847
   73 Torsion                  6     7     2    16         179.55322    0.54597
   74 Torsion                  6     7    13    12          71.46640  -14.85730
   75 Torsion                  6    11    10    14        -179.41878    0.71829
   76 Torsion                  7     2     4    18        -179.99257   -0.63196
   77 Torsion                  7     6     1    15         179.61899    0.23063
   78 Torsion                  7     6    11     8        -176.92607    0.55771
   79 Torsion                  7     6    11    10           4.12178    0.83776
   80 Torsion                  7    13    12     9           7.60047    4.74848
   81 Torsion                  8    11    10    14           1.58520    0.99625
   82 Torsion                  9    12     5    19        -112.41553    8.13087
   83 Torsion                  9    12     5    20           7.78180    9.41168
   84 Torsion                  9    12     5    21         129.61262   12.16166
   85 Torsion                 11     6     1    15          -0.94507    0.07259
   86 Torsion                 11     6     7    13          -2.09210   -1.43413
   87 Torsion                 13     7     2    16           2.80459    1.27777
   88 Torsion                 13    12     5    19          68.09739    8.21721
   89 Torsion                 13    12     5    20        -171.70529    9.49802
   90 Torsion                 13    12     5    21         -49.87447   12.24800
   91 Torsion                 15     1     3    17          -0.08231    0.16713
   92 Torsion                 16     2     4    18           0.17405    0.00648
   93 Torsion                 17     3     4    18          -0.04236   -0.13742

 ==============================================================================
                                internuclear distances
 ------------------------------------------------------------------------------
       center one      |      center two      | atomic units |  angstroms
 ------------------------------------------------------------------------------
    3 C                |   1 C                |     2.63112  |     1.39233
    4 C                |   2 C                |     2.63799  |     1.39596
    4 C                |   3 C                |     2.64705  |     1.40076
    6 C                |   1 C                |     2.66440  |     1.40994
    7 C                |   2 C                |     2.63798  |     1.39596
    7 C                |   6 C                |     2.66369  |     1.40956
   11 C                |   6 C                |     2.79465  |     1.47886
   11 C                |   8 O                |     2.34237  |     1.23953
   11 C                |  10 O                |     2.60842  |     1.38032
   12 C                |   5 C                |     2.82860  |     1.49683
   12 C                |   9 O                |     2.31480  |     1.22494
   13 O                |   7 C                |     2.66347  |     1.40945
   13 O                |  12 C                |     2.65785  |     1.40647
   14 H                |  10 O                |     1.85551  |     0.98189
   15 H                |   1 C                |     2.04741  |     1.08344
   16 H                |   2 C                |     2.04697  |     1.08321
   17 H                |   3 C                |     2.04881  |     1.08418
   18 H                |   4 C                |     2.04996  |     1.08479
   19 H                |   5 C                |     2.06922  |     1.09498
   20 H                |   5 C                |     2.05991  |     1.09006
   21 H                |   5 C                |     2.06657  |     1.09358
 ------------------------------------------------------------------------------
                         number of included internuclear distances:         21
 ==============================================================================



 ==============================================================================
                                 internuclear angles
 ------------------------------------------------------------------------------
        center 1       |       center 2       |       center 3       |  degrees
 ------------------------------------------------------------------------------
    3 C                |   1 C                |   6 C                |   121.48
    3 C                |   1 C                |  15 H                |   121.05
    6 C                |   1 C                |  15 H                |   117.47
    4 C                |   2 C                |   7 C                |   120.22
    4 C                |   2 C                |  16 H                |   121.44
    7 C                |   2 C                |  16 H                |   118.34
    1 C                |   3 C                |   4 C                |   119.65
    1 C                |   3 C                |  17 H                |   119.98
    4 C                |   3 C                |  17 H                |   120.37
    2 C                |   4 C                |   3 C                |   119.90
    2 C                |   4 C                |  18 H                |   119.74
    3 C                |   4 C                |  18 H                |   120.36
   12 C                |   5 C                |  19 H                |   108.86
   12 C                |   5 C                |  20 H                |   109.71
   12 C                |   5 C                |  21 H                |   110.61
   19 H                |   5 C                |  20 H                |   109.82
   19 H                |   5 C                |  21 H                |   107.56
   20 H                |   5 C                |  21 H                |   110.24
    1 C                |   6 C                |   7 C                |   117.89
    1 C                |   6 C                |  11 C                |   115.70
    7 C                |   6 C                |  11 C                |   126.41
    2 C                |   7 C                |   6 C                |   120.86
    2 C                |   7 C                |  13 O                |   115.95
    6 C                |   7 C                |  13 O                |   123.11
   11 C                |  10 O                |  14 H                |   108.57
    6 C                |  11 C                |   8 O                |   124.16
    6 C                |  11 C                |  10 O                |   115.56
    8 O                |  11 C                |  10 O                |   120.27
    5 C                |  12 C                |   9 O                |   127.60
    5 C                |  12 C                |  13 O                |   109.59
    9 O                |  12 C                |  13 O                |   122.80
    7 C                |  13 O                |  12 C                |   120.81
 ------------------------------------------------------------------------------
                            number of included internuclear angles:         32
 ==============================================================================




 Task  times  cpu:     2496.2s     wall:     2527.5s
 Summary of allocated global arrays
-----------------------------------
  No active global arrays



                         GA Statistics for process    0
                         ------------------------------

       create   destroy   get      put      acc     scatter   gather  read&inc
calls: 3686     3686     1.04e+07 3.75e+05 5.77e+06    0        0        0     
number of processes/call 1.00e+00 1.00e+00 1.00e+00 0.00e+00 0.00e+00
bytes total:             5.87e+09 4.99e+08 2.41e+09 0.00e+00 0.00e+00 0.00e+00
bytes remote:            0.00e+00 0.00e+00 0.00e+00 0.00e+00 0.00e+00 0.00e+00
Max memory consumed for GA by this process: 5518968 bytes
MA_summarize_allocated_blocks: starting scan ...
MA_summarize_allocated_blocks: scan completed: 0 heap blocks, 0 stack blocks
MA usage statistics:

	allocation statistics:
					      heap	     stack
					      ----	     -----
	current number of blocks	         0	         0
	maximum number of blocks	        23	        48
	current total bytes		         0	         0
	maximum total bytes		  15432912	  22519856
	maximum total K-bytes		     15433	     22520
	maximum total M-bytes		        16	        23


                                NWChem Input Module
                                -------------------





                                     CITATION
                                     --------
                Please cite the following reference when publishing
                           results obtained with NWChem:

                 M. Valiev, E.J. Bylaska, N. Govind, K. Kowalski,
              T.P. Straatsma, H.J.J. van Dam, D. Wang, J. Nieplocha,
                        E. Apra, T.L. Windus, W.A. de Jong
                 "NWChem: a comprehensive and scalable open-source
                  solution for large scale molecular simulations"
                      Comput. Phys. Commun. 181, 1477 (2010)
                           doi:10.1016/j.cpc.2010.04.018

                              AUTHORS & CONTRIBUTORS
                              ----------------------
      E. J. Bylaska, W. A. de Jong, N. Govind, K. Kowalski, T. P. Straatsma,
     M. Valiev, H. J. J. van Dam, D. Wang, E. Apra, T. L. Windus, J. Hammond,
    J. Autschbach, F. Aquino, J. Mullin, P. Nichols, S. Hirata, M. T. Hackler,
   Y. Zhao, P.-D. Fan, R. J. Harrison, M. Dupuis, D. M. A. Smith, K. Glaesemann,
    J. Nieplocha, V. Tipparaju, M. Krishnan, A. Vazquez-Mayagoitia, L. Jensen,
      M. Swart, Q. Wu, T. Van Voorhis, A. A. Auer, M. Nooijen, L. D. Crosby,
        E. Brown, G. Cisneros, G. I. Fann, H. Fruchtl, J. Garza, K. Hirao,
        R. Kendall, J. A. Nichols, K. Tsemekhman, K. Wolinski, J. Anchell,
       D. Bernholdt, P. Borowski, T. Clark, D. Clerc, H. Dachsel, M. Deegan,
        K. Dyall, D. Elwood, E. Glendening, M. Gutowski, A. Hess, J. Jaffe,
        B. Johnson, J. Ju, R. Kobayashi, R. Kutteh, Z. Lin, R. Littlefield,
    X. Long, B. Meng, T. Nakajima, S. Niu, L. Pollack, M. Rosing, G. Sandrone,
       M. Stave, H. Taylor, G. Thomas, J. H. van Lenthe, A. Wong, Z. Zhang.

 Total times  cpu:     2496.2s     wall:     2527.6s
