nohup: ignoring input
Starting!
Sun Jan 19 19:29:02 GMT 2014
 argument  1 = b3lyp.nw



============================== echo of input deck ==============================
echo

start b3lyp_scf

geometry units ang
C          2.05639       -0.16543        0.39727
C          0.68890        2.02854       -0.64816
C          2.74071        1.02327        0.12533
C          2.05734        2.11782       -0.40016
C         -3.59396        1.03209        0.04589
C          0.67738       -0.27507        0.15097
C          0.00274        0.84234       -0.35887
O          0.63293       -2.54526        0.93360
O         -1.76452        1.43252        1.56571
O         -1.24894       -1.68411        0.12975
C          0.05278       -1.58881        0.44958
C         -2.15199        1.12841        0.44513
O         -1.36167        0.82832       -0.65825
H         -1.47652       -2.60111        0.39232
H          2.60948       -1.01173        0.80284
H          0.15708        2.88266       -1.05823
H          3.80777        1.09126        0.32364
H          2.59044        3.04081       -0.61405
H         -3.81640        0.02049       -0.30287
H         -4.22480        1.24591        0.91440
H         -3.81296        1.76576       -0.73332
end

basis cartesian print segment
 H library 6-31G
 C library 6-31G
 O library 6-31G
end

dft
  xc b3lyp
end

driver
  maxiter 40
  inhess   1
end

task dft optimize
================================================================================


                                         
                                         


              Northwest Computational Chemistry Package (NWChem) 6.3
              ------------------------------------------------------


                    Environmental Molecular Sciences Laboratory
                       Pacific Northwest National Laboratory
                                Richland, WA 99352

                              Copyright (c) 1994-2012
                       Pacific Northwest National Laboratory
                            Battelle Memorial Institute

             NWChem is an open-source computational chemistry package
                        distributed under the terms of the
                      Educational Community License (ECL) 2.0
             A copy of the license is included with this distribution
                              in the LICENSE.TXT file

                                  ACKNOWLEDGMENT
                                  --------------

            This software and its documentation were developed at the
            EMSL at Pacific Northwest National Laboratory, a multiprogram
            national laboratory, operated for the U.S. Department of Energy
            by Battelle under Contract Number DE-AC05-76RL01830. Support
            for this work was provided by the Department of Energy Office
            of Biological and Environmental Research, Office of Basic
            Energy Sciences, and the Office of Advanced Scientific Computing.


           Job information
           ---------------

    hostname        = orac.nextmovesoftware.com
    program         = ../../bin/LINUX64/nwchem
    date            = Sun Jan 19 19:29:02 2014

    compiled        = Mon_Dec_16_21:09:47_2013
    source          = /home/noel/Tools/Quantum/nwchem-6.3
    nwchem branch   = 6.3
    nwchem revision = 24652
    ga revision     = 10379
    input           = b3lyp.nw
    prefix          = b3lyp_scf.
    data base       = ./b3lyp_scf.db
    status          = startup
    nproc           =        1
    time left       =     -1s



           Memory information
           ------------------

    heap     =   13107201 doubles =    100.0 Mbytes
    stack    =   13107201 doubles =    100.0 Mbytes
    global   =   26214400 doubles =    200.0 Mbytes (distinct from heap & stack)
    total    =   52428802 doubles =    400.0 Mbytes
    verify   = yes
    hardfail = no 


           Directory information
           ---------------------

  0 permanent = .
  0 scratch   = .




                                NWChem Input Module
                                -------------------



 Scaling coordinates for geometry "geometry" by  1.889725989
 (inverse scale =  0.529177249)

 C1  symmetry detected

          ------
          auto-z
          ------


                             Geometry "geometry" -> ""
                             -------------------------

 Output coordinates in angstroms (scale by  1.889725989 to convert to a.u.)

  No.       Tag          Charge          X              Y              Z
 ---- ---------------- ---------- -------------- -------------- --------------
    1 C                    6.0000    -0.34403900    -2.27310618     0.26462859
    2 C                    6.0000     1.91336910    -0.79524910    -0.44000201
    3 C                    6.0000     0.91635871    -2.87856280     0.25609651
    4 C                    6.0000     2.04321909    -2.14031750    -0.09936595
    5 C                    6.0000     0.52922494     3.42867473    -0.19480781
    6 C                    6.0000    -0.49484938    -0.91895040    -0.07869569
    7 C                    6.0000     0.65205858    -0.18697342    -0.41409530
    8 O                    8.0000    -2.86935828    -1.00811368     0.27059724
    9 O                    8.0000     0.75615091     1.70622218     1.47812661
   10 O                    8.0000    -1.99692488     0.89375558    -0.47165751
   11 C                    6.0000    -1.87892965    -0.38109071    -0.06337777
   12 C                    6.0000     0.64246342     2.01785472     0.29987547
   13 O                    8.0000     0.60584838     1.15733227    -0.79111839
   14 H                    1.0000    -2.95963675     1.06408861    -0.39551839
   15 H                    1.0000    -1.21358169    -2.86856406     0.54020923
   16 H                    1.0000     2.79279732    -0.22060266    -0.71730755
   17 H                    1.0000     1.01509436    -3.92729287     0.52625027
   18 H                    1.0000     3.02250511    -2.61230183    -0.10857311
   19 H                    1.0000    -0.41157687     3.55865400    -0.73558965
   20 H                    1.0000     0.53552993     4.11306795     0.65933145
   21 H                    1.0000     1.37988476     3.66570406    -0.83792200

      Atomic Mass 
      ----------- 

      C                 12.000000
      O                 15.994910
      H                  1.007825


 Effective nuclear repulsion energy (a.u.)     782.6612217760

            Nuclear Dipole moment (a.u.) 
            ----------------------------
        X                 Y               Z
 ---------------- ---------------- ----------------
     0.0000000000    -0.0000000000    -0.0000000000



                                Z-matrix (autoz)
                                -------- 

 Units are Angstrom for bonds and degrees for angles

      Type          Name      I     J     K     L     M      Value
      ----------- --------  ----- ----- ----- ----- ----- ----------
    1 Stretch                  1     3                       1.39830
    2 Stretch                  1     6                       1.40512
    3 Stretch                  1    15                       1.08932
    4 Stretch                  2     4                       1.39359
    5 Stretch                  2     7                       1.40056
    6 Stretch                  2    16                       1.08651
    7 Stretch                  3     4                       1.39326
    8 Stretch                  3    17                       1.08746
    9 Stretch                  4    18                       1.08713
   10 Stretch                  5    12                       1.49932
   11 Stretch                  5    19                       1.09291
   12 Stretch                  5    20                       1.09453
   13 Stretch                  5    21                       1.09243
   14 Stretch                  6     7                       1.40131
   15 Stretch                  6    11                       1.48499
   16 Stretch                  7    13                       1.39694
   17 Stretch                  8    11                       1.21887
   18 Stretch                  9    12                       1.22406
   19 Stretch                 10    11                       1.34382
   20 Stretch                 10    14                       0.98062
   21 Stretch                 12    13                       1.39000
   22 Bend                     1     3     4               120.07641
   23 Bend                     1     3    17               119.86100
   24 Bend                     1     6     7               118.29708
   25 Bend                     1     6    11               116.52421
   26 Bend                     2     4     3               119.89551
   27 Bend                     2     4    18               120.05964
   28 Bend                     2     7     6               120.97359
   29 Bend                     2     7    13               116.27901
   30 Bend                     3     1     6               120.83337
   31 Bend                     3     1    15               118.97138
   32 Bend                     3     4    18               120.04468
   33 Bend                     4     2     7               119.90586
   34 Bend                     4     2    16               119.83089
   35 Bend                     4     3    17               120.06254
   36 Bend                     5    12     9               124.34470
   37 Bend                     5    12    13               108.75879
   38 Bend                     6     1    15               120.19508
   39 Bend                     6     7    13               122.69678
   40 Bend                     6    11     8               125.01994
   41 Bend                     6    11    10               114.98063
   42 Bend                     7     2    16               120.26155
   43 Bend                     7     6    11               125.17733
   44 Bend                     7    13    12               112.52262
   45 Bend                     8    11    10               119.99502
   46 Bend                     9    12    13               126.89496
   47 Bend                    11    10    14               103.14379
   48 Bend                    12     5    19               109.88800
   49 Bend                    12     5    20               109.29726
   50 Bend                    12     5    21               109.85201
   51 Bend                    19     5    20               108.46529
   52 Bend                    19     5    21               110.68393
   53 Bend                    20     5    21               108.61756
   54 Torsion                  1     3     4     2           0.32538
   55 Torsion                  1     3     4    18        -179.82507
   56 Torsion                  1     6     7     2           1.58226
   57 Torsion                  1     6     7    13         178.89757
   58 Torsion                  1     6    11     8           2.95360
   59 Torsion                  1     6    11    10        -176.27860
   60 Torsion                  2     4     3    17        -179.75449
   61 Torsion                  2     7     6    11        -177.97329
   62 Torsion                  2     7    13    12         -96.24341
   63 Torsion                  3     1     6     7          -0.75741
   64 Torsion                  3     1     6    11         178.83657
   65 Torsion                  3     4     2     7           0.48892
   66 Torsion                  3     4     2    16        -179.98290
   67 Torsion                  4     2     7     6          -1.46663
   68 Torsion                  4     2     7    13        -178.94705
   69 Torsion                  4     3     1     6          -0.18514
   70 Torsion                  4     3     1    15         179.67085
   71 Torsion                  5    12    13     7        -177.58841
   72 Torsion                  6     1     3    17         179.89457
   73 Torsion                  6     7     2    16         179.00725
   74 Torsion                  6     7    13    12          86.32370
   75 Torsion                  6    11    10    14         179.86293
   76 Torsion                  7     2     4    18        -179.36060
   77 Torsion                  7     6     1    15         179.38837
   78 Torsion                  7     6    11     8        -177.48378
   79 Torsion                  7     6    11    10           3.28402
   80 Torsion                  7    13    12     9           2.85199
   81 Torsion                  8    11    10    14           0.58895
   82 Torsion                  9    12     5    19        -120.54640
   83 Torsion                  9    12     5    20          -1.62988
   84 Torsion                  9    12     5    21         117.45096
   85 Torsion                 11     6     1    15          -1.01765
   86 Torsion                 11     6     7    13          -0.65797
   87 Torsion                 13     7     2    16           1.52682
   88 Torsion                 13    12     5    19          59.88018
   89 Torsion                 13    12     5    20         178.79669
   90 Torsion                 13    12     5    21         -62.12247
   91 Torsion                 15     1     3    17          -0.24944
   92 Torsion                 16     2     4    18           0.16757
   93 Torsion                 17     3     4    18           0.09506


            XYZ format geometry
            -------------------
    21
 geometry
 C                    -0.34403900    -2.27310618     0.26462859
 C                     1.91336910    -0.79524910    -0.44000201
 C                     0.91635871    -2.87856280     0.25609651
 C                     2.04321909    -2.14031750    -0.09936595
 C                     0.52922494     3.42867473    -0.19480781
 C                    -0.49484938    -0.91895040    -0.07869569
 C                     0.65205858    -0.18697342    -0.41409530
 O                    -2.86935828    -1.00811368     0.27059724
 O                     0.75615091     1.70622218     1.47812661
 O                    -1.99692488     0.89375558    -0.47165751
 C                    -1.87892965    -0.38109071    -0.06337777
 C                     0.64246342     2.01785472     0.29987547
 O                     0.60584838     1.15733227    -0.79111839
 H                    -2.95963675     1.06408861    -0.39551839
 H                    -1.21358169    -2.86856406     0.54020923
 H                     2.79279732    -0.22060266    -0.71730755
 H                     1.01509436    -3.92729287     0.52625027
 H                     3.02250511    -2.61230183    -0.10857311
 H                    -0.41157687     3.55865400    -0.73558965
 H                     0.53552993     4.11306795     0.65933145
 H                     1.37988476     3.66570406    -0.83792200

 ==============================================================================
                                internuclear distances
 ------------------------------------------------------------------------------
       center one      |      center two      | atomic units |  angstroms
 ------------------------------------------------------------------------------
    3 C                |   1 C                |     2.64241  |     1.39830
    4 C                |   2 C                |     2.63351  |     1.39359
    4 C                |   3 C                |     2.63288  |     1.39326
    6 C                |   1 C                |     2.65529  |     1.40512
    7 C                |   2 C                |     2.64668  |     1.40056
    7 C                |   6 C                |     2.64810  |     1.40131
   11 C                |   6 C                |     2.80623  |     1.48499
   11 C                |   8 O                |     2.30333  |     1.21887
   11 C                |  10 O                |     2.53945  |     1.34382
   12 C                |   5 C                |     2.83330  |     1.49932
   12 C                |   9 O                |     2.31313  |     1.22406
   13 O                |   7 C                |     2.63983  |     1.39694
   13 O                |  12 C                |     2.62672  |     1.39000
   14 H                |  10 O                |     1.85311  |     0.98062
   15 H                |   1 C                |     2.05852  |     1.08932
   16 H                |   2 C                |     2.05321  |     1.08651
   17 H                |   3 C                |     2.05500  |     1.08746
   18 H                |   4 C                |     2.05438  |     1.08713
   19 H                |   5 C                |     2.06530  |     1.09291
   20 H                |   5 C                |     2.06835  |     1.09453
   21 H                |   5 C                |     2.06439  |     1.09243
 ------------------------------------------------------------------------------
                         number of included internuclear distances:         21
 ==============================================================================



 ==============================================================================
                                 internuclear angles
 ------------------------------------------------------------------------------
        center 1       |       center 2       |       center 3       |  degrees
 ------------------------------------------------------------------------------
    3 C                |   1 C                |   6 C                |   120.83
    3 C                |   1 C                |  15 H                |   118.97
    6 C                |   1 C                |  15 H                |   120.20
    4 C                |   2 C                |   7 C                |   119.91
    4 C                |   2 C                |  16 H                |   119.83
    7 C                |   2 C                |  16 H                |   120.26
    1 C                |   3 C                |   4 C                |   120.08
    1 C                |   3 C                |  17 H                |   119.86
    4 C                |   3 C                |  17 H                |   120.06
    2 C                |   4 C                |   3 C                |   119.90
    2 C                |   4 C                |  18 H                |   120.06
    3 C                |   4 C                |  18 H                |   120.04
   12 C                |   5 C                |  19 H                |   109.89
   12 C                |   5 C                |  20 H                |   109.30
   12 C                |   5 C                |  21 H                |   109.85
   19 H                |   5 C                |  20 H                |   108.47
   19 H                |   5 C                |  21 H                |   110.68
   20 H                |   5 C                |  21 H                |   108.62
    1 C                |   6 C                |   7 C                |   118.30
    1 C                |   6 C                |  11 C                |   116.52
    7 C                |   6 C                |  11 C                |   125.18
    2 C                |   7 C                |   6 C                |   120.97
    2 C                |   7 C                |  13 O                |   116.28
    6 C                |   7 C                |  13 O                |   122.70
   11 C                |  10 O                |  14 H                |   103.14
    6 C                |  11 C                |   8 O                |   125.02
    6 C                |  11 C                |  10 O                |   114.98
    8 O                |  11 C                |  10 O                |   120.00
    5 C                |  12 C                |   9 O                |   124.34
    5 C                |  12 C                |  13 O                |   108.76
    9 O                |  12 C                |  13 O                |   126.89
    7 C                |  13 O                |  12 C                |   112.52
 ------------------------------------------------------------------------------
                            number of included internuclear angles:         32
 ==============================================================================



  library name resolved from: .nwchemrc
  library file name is: </home/noel/Tools/Quantum/nwchem-6.3/src/basis/libraries/>
  
                      Basis "ao basis" -> "" (cartesian)
                      -----
  H (Hydrogen)
  ------------
            Exponent  Coefficients 
       -------------- ---------------------------------------------------------
  1 S  1.87311370E+01  0.033495
  1 S  2.82539370E+00  0.234727
  1 S  6.40121700E-01  0.813757

  2 S  1.61277800E-01  1.000000

  C (Carbon)
  ----------
            Exponent  Coefficients 
       -------------- ---------------------------------------------------------
  1 S  3.04752490E+03  0.001835
  1 S  4.57369510E+02  0.014037
  1 S  1.03948690E+02  0.068843
  1 S  2.92101550E+01  0.232184
  1 S  9.28666300E+00  0.467941
  1 S  3.16392700E+00  0.362312

  2 S  7.86827240E+00 -0.119332
  2 S  1.88128850E+00 -0.160854
  2 S  5.44249300E-01  1.143456

  3 P  7.86827240E+00  0.068999
  3 P  1.88128850E+00  0.316424
  3 P  5.44249300E-01  0.744308

  4 S  1.68714400E-01  1.000000

  5 P  1.68714400E-01  1.000000

  O (Oxygen)
  ----------
            Exponent  Coefficients 
       -------------- ---------------------------------------------------------
  1 S  5.48467170E+03  0.001831
  1 S  8.25234950E+02  0.013950
  1 S  1.88046960E+02  0.068445
  1 S  5.29645000E+01  0.232714
  1 S  1.68975700E+01  0.470193
  1 S  5.79963530E+00  0.358521

  2 S  1.55396160E+01 -0.110778
  2 S  3.59993360E+00 -0.148026
  2 S  1.01376180E+00  1.130767

  3 P  1.55396160E+01  0.070874
  3 P  3.59993360E+00  0.339753
  3 P  1.01376180E+00  0.727159

  4 S  2.70005800E-01  1.000000

  5 P  2.70005800E-01  1.000000



 Summary of "ao basis" -> "" (cartesian)
 ------------------------------------------------------------------------------
       Tag                 Description            Shells   Functions and Types
 ---------------- ------------------------------  ------  ---------------------
 H                           6-31G                   2        2   2s
 C                           6-31G                   5        9   3s2p
 O                           6-31G                   5        9   3s2p




                           NWChem Geometry Optimization
                           ----------------------------


 maximum gradient threshold         (gmax) =   0.000450
 rms gradient threshold             (grms) =   0.000300
 maximum cartesian step threshold   (xmax) =   0.001800
 rms cartesian step threshold       (xrms) =   0.001200
 fixed trust radius                (trust) =   0.300000
 maximum step size to saddle      (sadstp) =   0.100000
 energy precision                  (eprec) =   5.0D-06
 maximum number of steps          (nptopt) =   40
 initial hessian option           (inhess) =    1
 line search option               (linopt) =    1
 hessian update option            (modupd) =    1
 saddle point option              (modsad) =    0
 initial eigen-mode to follow     (moddir) =    0
 initial variable to follow       (vardir) =    0
 follow first negative mode     (firstneg) =    T
 apply conjugacy                    (opcg) =    F
 source of zmatrix                         =   autoz   


          -------------------
          Energy Minimization
          -------------------


 Names of Z-matrix variables 
    1              2              3              4              5         
    6              7              8              9             10         
   11             12             13             14             15         
   16             17             18             19             20         
   21             22             23             24             25         
   26             27             28             29             30         
   31             32             33             34             35         
   36             37             38             39             40         
   41             42             43             44             45         
   46             47             48             49             50         
   51             52             53             54             55         
   56             57             58             59             60         
   61             62             63             64             65         
   66             67             68             69             70         
   71             72             73             74             75         
   76             77             78             79             80         
   81             82             83             84             85         
   86             87             88             89             90         
   91             92             93         

 Variables with the same non-blank name are constrained to be equal


 Using diagonal initial Hessian 
 Scaling for Hessian diagonals: bonds = 1.00  angles = 0.25  torsions = 0.10

          --------
          Step   0
          --------


                         Geometry "geometry" -> "geometry"
                         ---------------------------------

 Output coordinates in angstroms (scale by  1.889725989 to convert to a.u.)

  No.       Tag          Charge          X              Y              Z
 ---- ---------------- ---------- -------------- -------------- --------------
    1 C                    6.0000    -0.34403900    -2.27310618     0.26462859
    2 C                    6.0000     1.91336910    -0.79524910    -0.44000201
    3 C                    6.0000     0.91635871    -2.87856280     0.25609651
    4 C                    6.0000     2.04321909    -2.14031750    -0.09936595
    5 C                    6.0000     0.52922494     3.42867473    -0.19480781
    6 C                    6.0000    -0.49484938    -0.91895040    -0.07869569
    7 C                    6.0000     0.65205858    -0.18697342    -0.41409530
    8 O                    8.0000    -2.86935828    -1.00811368     0.27059724
    9 O                    8.0000     0.75615091     1.70622218     1.47812661
   10 O                    8.0000    -1.99692488     0.89375558    -0.47165751
   11 C                    6.0000    -1.87892965    -0.38109071    -0.06337777
   12 C                    6.0000     0.64246342     2.01785472     0.29987547
   13 O                    8.0000     0.60584838     1.15733227    -0.79111839
   14 H                    1.0000    -2.95963675     1.06408861    -0.39551839
   15 H                    1.0000    -1.21358169    -2.86856406     0.54020923
   16 H                    1.0000     2.79279732    -0.22060266    -0.71730755
   17 H                    1.0000     1.01509436    -3.92729287     0.52625027
   18 H                    1.0000     3.02250511    -2.61230183    -0.10857311
   19 H                    1.0000    -0.41157687     3.55865400    -0.73558965
   20 H                    1.0000     0.53552993     4.11306795     0.65933145
   21 H                    1.0000     1.37988476     3.66570406    -0.83792200

      Atomic Mass 
      ----------- 

      C                 12.000000
      O                 15.994910
      H                  1.007825


 Effective nuclear repulsion energy (a.u.)     782.6612217760

            Nuclear Dipole moment (a.u.) 
            ----------------------------
        X                 Y               Z
 ---------------- ---------------- ----------------
     0.0000000000    -0.0000000000    -0.0000000000


                                 NWChem DFT Module
                                 -----------------


  Caching 1-el integrals 

            General Information
            -------------------
          SCF calculation type: DFT
          Wavefunction type:  closed shell.
          No. of atoms     :    21
          No. of electrons :    94
           Alpha electrons :    47
            Beta electrons :    47
          Charge           :     0
          Spin multiplicity:     1
          Use of symmetry is: off; symmetry adaption is: off
          Maximum number of iterations:  30
          AO basis - number of functions:   133
                     number of shells:    81
          Convergence on energy requested: 1.00D-06
          Convergence on density requested: 1.00D-05
          Convergence on gradient requested: 5.00D-04

              XC Information
              --------------
                         B3LYP Method XC Potential
                     Hartree-Fock (Exact) Exchange  0.200          
                        Slater Exchange Functional  0.800 local    
                    Becke 1988 Exchange Functional  0.720 non-local
              Lee-Yang-Parr Correlation Functional  0.810          
                  VWN I RPA Correlation Functional  0.190 local    

             Grid Information
             ----------------
          Grid used for XC integration:  medium    
          Radial quadrature: Mura-Knowles        
          Angular quadrature: Lebedev. 
          Tag              B.-S. Rad. Rad. Pts. Rad. Cut. Ang. Pts.
          ---              ---------- --------- --------- ---------
          C                   0.70       49          14.0       434
          O                   0.60       49          13.0       434
          H                   0.35       45          14.0       434
          Grid pruning is: on 
          Number of quadrature shells:   997
          Spatial weights used:  Erf1

          Convergence Information
          -----------------------
          Convergence aids based upon iterative change in 
          total energy or number of iterations. 
          Levelshifting, if invoked, occurs when the 
          HOMO/LUMO gap drops below (HL_TOL): 1.00D-02
          DIIS, if invoked, will attempt to extrapolate 
          using up to (NFOCK): 10 stored Fock matrices.

                    Damping( 0%)  Levelshifting(0.5)       DIIS
                  --------------- ------------------- ---------------
          dE  on:    start            ASAP                start   
          dE off:    2 iters         30 iters            30 iters 


      Screening Tolerance Information
      -------------------------------
          Density screening/tol_rho: 1.00D-10
          AO Gaussian exp screening on grid/accAOfunc:  14
          CD Gaussian exp screening on grid/accCDfunc:  20
          XC Gaussian exp screening on grid/accXCfunc:  20
          Schwarz screening/accCoul: 1.00D-08


      Superposition of Atomic Density Guess
      -------------------------------------

 Sum of atomic energies:        -641.94555658

      Non-variational initial energy
      ------------------------------

 Total energy =    -649.422666
 1-e energy   =   -2429.841184
 2-e energy   =     997.757296
 HOMO         =      -0.261001
 LUMO         =      -0.026177

   Time after variat. SCF:      2.0
   Time prior to 1st pass:      2.0

 Integral file          = ./b3lyp_scf.aoints.0
 Record size in doubles =    65536    No. of integs per rec  =    43688
 Max. records in memory =        0    Max. records in file   = ********
 No. of bits per label  =        8    No. of bits per value  =       64


 #quartets = 2.994D+06 #integrals = 2.239D+07 #direct =  0.0% #cached =100.0%


 Grid_pts file          = ./b3lyp_scf.gridpts.0
 Record size in doubles =  12289        No. of grid_pts per rec  =   3070
 Max. records in memory =    156        Max. recs in file   = *********


           Memory utilization after 1st SCF pass: 
           Heap Space remaining (MW):       11.18            11178188
          Stack Space remaining (MW):       13.11            13105847

   convergence    iter        energy       DeltaE   RMS-Dens  Diis-err    time
 ---------------- ----- ----------------- --------- --------- ---------  ------
 d= 0,ls=0.0,diis     1   -648.1060505406 -1.43D+03  3.14D-02  2.95D+00    13.3
 d= 0,ls=0.0,diis     2   -647.0827332016  1.02D+00  2.30D-02  1.36D+01    17.1
 d= 0,ls=0.0,diis     3   -648.4294772171 -1.35D+00  5.62D-03  5.60D-01    20.9
 d= 0,ls=0.0,diis     4   -648.4684819450 -3.90D-02  2.02D-03  1.89D-01    24.6
 d= 0,ls=0.0,diis     5   -648.4860165534 -1.75D-02  5.33D-04  5.32D-03    29.2
  Resetting Diis
 d= 0,ls=0.0,diis     6   -648.4864879725 -4.71D-04  2.13D-04  8.27D-04    34.2
 d= 0,ls=0.0,diis     7   -648.4865758454 -8.79D-05  2.07D-04  1.35D-04    39.0
 d= 0,ls=0.0,diis     8   -648.4865225059  5.33D-05  1.40D-04  6.54D-04    43.6
 d= 0,ls=0.0,diis     9   -648.4865903877 -6.79D-05  1.68D-05  5.34D-06    48.1
 d= 0,ls=0.0,diis    10   -648.4865909598 -5.72D-07  4.28D-06  3.19D-07    52.8


         Total DFT energy =     -648.486590959794
      One electron energy =    -2436.358816151402
           Coulomb energy =     1091.390391167225
    Exchange-Corr. energy =      -86.179387751572
 Nuclear repulsion energy =      782.661221775955

 Numeric. integr. density =       93.999966176192

     Total iterative time =     50.8s



                       DFT Final Molecular Orbital Analysis
                       ------------------------------------

 Vector   13  Occ=2.000000D+00  E=-1.019350D+01
              MO Center=  5.3D-01,  3.4D+00, -1.9D-01, r^2= 2.8D-02
   Bfn.  Coefficient  Atom+Function         Bfn.  Coefficient  Atom+Function  
  ----- ------------  ---------------      ----- ------------  ---------------
    37      0.995342   5 C  s         

 Vector   14  Occ=2.000000D+00  E=-1.145792D+00
              MO Center= -2.1D+00,  2.2D-01, -2.0D-01, r^2= 1.5D+00
   Bfn.  Coefficient  Atom+Function         Bfn.  Coefficient  Atom+Function  
  ----- ------------  ---------------      ----- ------------  ---------------
    87      0.356150  10 O  s                83      0.332977  10 O  s         
    92      0.239078  11 C  s                65      0.217191   8 O  s         
    69      0.191578   8 O  s                82     -0.153819  10 O  s         

 Vector   15  Occ=2.000000D+00  E=-1.129974D+00
              MO Center=  4.8D-01,  1.2D+00, -9.0D-02, r^2= 1.8D+00
   Bfn.  Coefficient  Atom+Function         Bfn.  Coefficient  Atom+Function  
  ----- ------------  ---------------      ----- ------------  ---------------
   114      0.394964  13 O  s               110      0.343263  13 O  s         
   101      0.214356  12 C  s                74      0.198303   9 O  s         
    78      0.187859   9 O  s               109     -0.160640  13 O  s         

 Vector   16  Occ=2.000000D+00  E=-1.049699D+00
              MO Center=  6.3D-01,  1.5D+00,  6.3D-01, r^2= 1.6D+00
   Bfn.  Coefficient  Atom+Function         Bfn.  Coefficient  Atom+Function  
  ----- ------------  ---------------      ----- ------------  ---------------
    74      0.372164   9 O  s                78      0.368485   9 O  s         
   114     -0.307622  13 O  s               110     -0.240264  13 O  s         
   104      0.225452  12 C  pz               73     -0.168764   9 O  s         
    77     -0.151805   9 O  pz        

 Vector   17  Occ=2.000000D+00  E=-1.041290D+00
              MO Center= -2.3D+00, -2.5D-01, -2.0D-02, r^2= 1.5D+00
   Bfn.  Coefficient  Atom+Function         Bfn.  Coefficient  Atom+Function  
  ----- ------------  ---------------      ----- ------------  ---------------
    69      0.375188   8 O  s                65      0.354539   8 O  s         
    87     -0.343117  10 O  s                83     -0.286757  10 O  s         
    94     -0.187257  11 C  py               64     -0.162563   8 O  s         

 Vector   18  Occ=2.000000D+00  E=-8.834996D-01
              MO Center=  6.2D-01, -1.3D+00, -9.3D-02, r^2= 2.6D+00
   Bfn.  Coefficient  Atom+Function         Bfn.  Coefficient  Atom+Function  
  ----- ------------  ---------------      ----- ------------  ---------------
    47      0.204931   6 C  s                 2      0.178882   1 C  s         
    56      0.174338   7 C  s                11      0.167784   2 C  s         
    29      0.167483   4 C  s                20      0.166066   3 C  s         

 Vector   19  Occ=2.000000D+00  E=-7.939838D-01
              MO Center=  5.6D-01, -9.2D-01, -1.1D-01, r^2= 5.0D+00
   Bfn.  Coefficient  Atom+Function         Bfn.  Coefficient  Atom+Function  
  ----- ------------  ---------------      ----- ------------  ---------------
    29      0.232750   4 C  s                47     -0.230201   6 C  s         
    33      0.165331   4 C  s                20      0.163727   3 C  s         

 Vector   20  Occ=2.000000D+00  E=-7.848122D-01
              MO Center=  5.4D-01,  1.8D-01, -1.4D-01, r^2= 6.2D+00
   Bfn.  Coefficient  Atom+Function         Bfn.  Coefficient  Atom+Function  
  ----- ------------  ---------------      ----- ------------  ---------------
     2      0.195675   1 C  s                11     -0.185743   2 C  s         
    38      0.183663   5 C  s                42      0.159948   5 C  s         
    56     -0.155186   7 C  s               112      0.151566  13 O  py        

 Vector   21  Occ=2.000000D+00  E=-7.482095D-01
              MO Center=  6.6D-01,  8.0D-01, -7.7D-02, r^2= 8.1D+00
   Bfn.  Coefficient  Atom+Function         Bfn.  Coefficient  Atom+Function  
  ----- ------------  ---------------      ----- ------------  ---------------
    38      0.262869   5 C  s                42      0.240750   5 C  s         
    20     -0.181898   3 C  s                11      0.157767   2 C  s         

 Vector   22  Occ=2.000000D+00  E=-6.836198D-01
              MO Center= -3.2D-01, -5.4D-01, -1.8D-01, r^2= 5.9D+00
   Bfn.  Coefficient  Atom+Function         Bfn.  Coefficient  Atom+Function  
  ----- ------------  ---------------      ----- ------------  ---------------
    92      0.208131  11 C  s                29      0.190728   4 C  s         
    84      0.188506  10 O  px               96      0.175542  11 C  s         
    85     -0.158822  10 O  py               93      0.152993  11 C  px        

 Vector   23  Occ=2.000000D+00  E=-6.485709D-01
              MO Center=  5.9D-01, -7.0D-02, -2.0D-01, r^2= 6.6D+00
   Bfn.  Coefficient  Atom+Function         Bfn.  Coefficient  Atom+Function  
  ----- ------------  ---------------      ----- ------------  ---------------
   112      0.262512  13 O  py               20     -0.170143   3 C  s         

 Vector   24  Occ=2.000000D+00  E=-6.142049D-01
              MO Center=  2.9D-02, -6.6D-01, -2.0D-01, r^2= 5.2D+00
   Bfn.  Coefficient  Atom+Function         Bfn.  Coefficient  Atom+Function  
  ----- ------------  ---------------      ----- ------------  ---------------
    57      0.209235   7 C  px               85     -0.177352  10 O  py        
    48     -0.163305   6 C  px        

 Vector   25  Occ=2.000000D+00  E=-5.911291D-01
              MO Center=  9.3D-02, -2.8D-01, -2.0D-01, r^2= 6.4D+00
   Bfn.  Coefficient  Atom+Function         Bfn.  Coefficient  Atom+Function  
  ----- ------------  ---------------      ----- ------------  ---------------
   112     -0.186720  13 O  py               85      0.181710  10 O  py        
    58      0.172331   7 C  py               94     -0.171968  11 C  py        

 Vector   26  Occ=2.000000D+00  E=-5.330774D-01
              MO Center=  8.0D-02, -1.0D+00, -3.7D-02, r^2= 6.6D+00
   Bfn.  Coefficient  Atom+Function         Bfn.  Coefficient  Atom+Function  
  ----- ------------  ---------------      ----- ------------  ---------------
    94     -0.195604  11 C  py               13      0.185133   2 C  py        
    22     -0.183580   3 C  py               85      0.180578  10 O  py        
   114     -0.162127  13 O  s                48     -0.156549   6 C  px        
   124      0.155286  17 H  s         

 Vector   27  Occ=2.000000D+00  E=-5.134475D-01
              MO Center=  2.3D-01, -6.8D-01, -6.6D-02, r^2= 6.3D+00
   Bfn.  Coefficient  Atom+Function         Bfn.  Coefficient  Atom+Function  
  ----- ------------  ---------------      ----- ------------  ---------------
    69      0.215887   8 O  s                57     -0.187242   7 C  px        
   111     -0.180905  13 O  px                4     -0.173113   1 C  py        
    30      0.170997   4 C  px               12      0.160350   2 C  px        
    49      0.158133   6 C  py        

 Vector   28  Occ=2.000000D+00  E=-4.977459D-01
              MO Center=  5.2D-01,  2.2D+00,  8.3D-02, r^2= 3.4D+00
   Bfn.  Coefficient  Atom+Function         Bfn.  Coefficient  Atom+Function  
  ----- ------------  ---------------      ----- ------------  ---------------
   103      0.302926  12 C  py               40     -0.232445   5 C  py        
    76      0.226042   9 O  py              113     -0.201434  13 O  pz        
    42     -0.174888   5 C  s                41      0.167735   5 C  pz        
   107      0.165720  12 C  py              105      0.158320  12 C  s         

 Vector   29  Occ=2.000000D+00  E=-4.931511D-01
              MO Center=  2.1D-01, -8.1D-02, -1.1D-03, r^2= 7.4D+00
   Bfn.  Coefficient  Atom+Function         Bfn.  Coefficient  Atom+Function  
  ----- ------------  ---------------      ----- ------------  ---------------
    78      0.211600   9 O  s                30     -0.186995   4 C  px        
    97      0.173025  11 C  px               85      0.166663  10 O  py        
    77      0.161514   9 O  pz               93      0.154871  11 C  px        
   113     -0.151163  13 O  pz              126     -0.151143  18 H  s         

 Vector   30  Occ=2.000000D+00  E=-4.800065D-01
              MO Center=  4.3D-01,  2.1D-01,  1.7D-01, r^2= 6.7D+00
   Bfn.  Coefficient  Atom+Function         Bfn.  Coefficient  Atom+Function  
  ----- ------------  ---------------      ----- ------------  ---------------
    78      0.266601   9 O  s                77      0.208326   9 O  pz        
    51      0.196328   6 C  s                22     -0.167305   3 C  py        
   112      0.160017  13 O  py              113     -0.152920  13 O  pz        
    30      0.151032   4 C  px        

 Vector   31  Occ=2.000000D+00  E=-4.757342D-01
              MO Center= -1.3D+00, -3.8D-01, -6.1D-03, r^2= 6.5D+00
   Bfn.  Coefficient  Atom+Function         Bfn.  Coefficient  Atom+Function  
  ----- ------------  ---------------      ----- ------------  ---------------
    69      0.295710   8 O  s                84      0.234334  10 O  px        
    66     -0.223894   8 O  px               87      0.208185  10 O  s         
    67     -0.198276   8 O  py               65      0.176607   8 O  s         
    92     -0.165000  11 C  s         

 Vector   32  Occ=2.000000D+00  E=-4.656945D-01
              MO Center= -1.3D+00,  7.9D-02, -2.4D-02, r^2= 4.7D+00
   Bfn.  Coefficient  Atom+Function         Bfn.  Coefficient  Atom+Function  
  ----- ------------  ---------------      ----- ------------  ---------------
    86      0.296164  10 O  pz               95      0.294226  11 C  pz        
    68      0.235047   8 O  pz               90      0.185569  10 O  pz        
    99      0.163834  11 C  pz        

 Vector   33  Occ=2.000000D+00  E=-4.609488D-01
              MO Center=  3.0D-01,  9.6D-01, -2.5D-02, r^2= 7.6D+00
   Bfn.  Coefficient  Atom+Function         Bfn.  Coefficient  Atom+Function  
  ----- ------------  ---------------      ----- ------------  ---------------
    39      0.260174   5 C  px              102      0.216349  12 C  px        
     3      0.156633   1 C  px               75      0.155273   9 O  px        

 Vector   34  Occ=2.000000D+00  E=-4.517609D-01
              MO Center=  6.0D-01, -1.1D+00, -4.6D-02, r^2= 5.8D+00
   Bfn.  Coefficient  Atom+Function         Bfn.  Coefficient  Atom+Function  
  ----- ------------  ---------------      ----- ------------  ---------------
     4      0.243580   1 C  py               12      0.234991   2 C  px        
   122      0.200090  16 H  s                13      0.185405   2 C  py        
   120     -0.183433  15 H  s                 3      0.178000   1 C  px        
    49     -0.160946   6 C  py              123      0.154311  16 H  s         

 Vector   35  Occ=2.000000D+00  E=-4.136689D-01
              MO Center= -4.0D-01,  9.7D-01, -9.0D-03, r^2= 1.0D+01
   Bfn.  Coefficient  Atom+Function         Bfn.  Coefficient  Atom+Function  
  ----- ------------  ---------------      ----- ------------  ---------------
    41      0.251909   5 C  pz               66     -0.238315   8 O  px        
    84     -0.188841  10 O  px              130      0.177363  20 H  s         

 Vector   36  Occ=2.000000D+00  E=-4.104578D-01
              MO Center=  4.5D-01,  9.3D-01,  2.9D-01, r^2= 7.1D+00
   Bfn.  Coefficient  Atom+Function         Bfn.  Coefficient  Atom+Function  
  ----- ------------  ---------------      ----- ------------  ---------------
    77      0.314689   9 O  pz               41      0.208581   5 C  pz        
   104     -0.203305  12 C  pz              113      0.184216  13 O  pz        
    81      0.176926   9 O  pz        

 Vector   37  Occ=2.000000D+00  E=-4.070390D-01
              MO Center= -2.8D-01,  1.1D+00, -3.1D-02, r^2= 8.8D+00
   Bfn.  Coefficient  Atom+Function         Bfn.  Coefficient  Atom+Function  
  ----- ------------  ---------------      ----- ------------  ---------------
    40      0.213336   5 C  py               84      0.194611  10 O  px        
    41      0.192827   5 C  pz               66      0.188075   8 O  px        
   130      0.184526  20 H  s                22     -0.160367   3 C  py        
   131      0.150554  20 H  s         

 Vector   38  Occ=2.000000D+00  E=-3.963876D-01
              MO Center=  6.9D-01,  8.0D-01, -1.6D-01, r^2= 8.3D+00
   Bfn.  Coefficient  Atom+Function         Bfn.  Coefficient  Atom+Function  
  ----- ------------  ---------------      ----- ------------  ---------------
    39      0.264940   5 C  px              111     -0.257082  13 O  px        
    21      0.209199   3 C  px                3     -0.185291   1 C  px        
    30     -0.178166   4 C  px              115     -0.153812  13 O  px        
    75     -0.152325   9 O  px        

 Vector   39  Occ=2.000000D+00  E=-3.823548D-01
              MO Center=  7.0D-01, -1.2D+00, -1.6D-02, r^2= 6.2D+00
   Bfn.  Coefficient  Atom+Function         Bfn.  Coefficient  Atom+Function  
  ----- ------------  ---------------      ----- ------------  ---------------
    31      0.213771   4 C  py               23      0.197250   3 C  pz        
    14      0.187758   2 C  pz                4      0.185739   1 C  py        
    50      0.172278   6 C  pz        

 Vector   40  Occ=2.000000D+00  E=-3.722131D-01
              MO Center=  4.9D-01, -1.7D-01,  2.0D-01, r^2= 7.9D+00
   Bfn.  Coefficient  Atom+Function         Bfn.  Coefficient  Atom+Function  
  ----- ------------  ---------------      ----- ------------  ---------------
    75      0.268255   9 O  px               21      0.204431   3 C  px        
    30     -0.196346   4 C  px                3     -0.191498   1 C  px        
    57     -0.187596   7 C  px              102      0.178577  12 C  px        
    79      0.171637   9 O  px               12      0.151097   2 C  px        

 Vector   41  Occ=2.000000D+00  E=-3.685739D-01
              MO Center=  6.6D-01, -5.3D-01, -8.7D-02, r^2= 6.1D+00
   Bfn.  Coefficient  Atom+Function         Bfn.  Coefficient  Atom+Function  
  ----- ------------  ---------------      ----- ------------  ---------------
   113      0.246726  13 O  pz               32     -0.184915   4 C  pz        
     5     -0.180504   1 C  pz              112     -0.174170  13 O  py        
   117      0.171467  13 O  pz               22     -0.167913   3 C  py        
    13     -0.164613   2 C  py               49     -0.161639   6 C  py        

 Vector   42  Occ=2.000000D+00  E=-3.274044D-01
              MO Center= -2.1D+00, -2.5D-02, -1.5D-01, r^2= 2.7D+00
   Bfn.  Coefficient  Atom+Function         Bfn.  Coefficient  Atom+Function  
  ----- ------------  ---------------      ----- ------------  ---------------
    86      0.453121  10 O  pz               68     -0.392345   8 O  pz        
    90      0.352416  10 O  pz               72     -0.276435   8 O  pz        
    85      0.157194  10 O  py        

 Vector   43  Occ=2.000000D+00  E=-3.158676D-01
              MO Center=  5.9D-01,  9.7D-01,  1.4D-02, r^2= 3.2D+00
   Bfn.  Coefficient  Atom+Function         Bfn.  Coefficient  Atom+Function  
  ----- ------------  ---------------      ----- ------------  ---------------
   111      0.491741  13 O  px              115      0.363293  13 O  px        
    75     -0.357971   9 O  px               79     -0.259933   9 O  px        

 Vector   44  Occ=2.000000D+00  E=-2.908933D-01
              MO Center= -2.4D+00, -6.1D-01,  1.6D-01, r^2= 2.6D+00
   Bfn.  Coefficient  Atom+Function         Bfn.  Coefficient  Atom+Function  
  ----- ------------  ---------------      ----- ------------  ---------------
    67      0.479288   8 O  py               71      0.317430   8 O  py        
    66     -0.310576   8 O  px               51      0.273860   6 C  s         
    85      0.227751  10 O  py               98      0.219286  11 C  py        
    89      0.212824  10 O  py               87     -0.203537  10 O  s         
    52     -0.199599   6 C  px               70     -0.191084   8 O  px        

 Vector   45  Occ=2.000000D+00  E=-2.840964D-01
              MO Center=  5.8D-01,  1.6D+00,  9.6D-01, r^2= 2.8D+00
   Bfn.  Coefficient  Atom+Function         Bfn.  Coefficient  Atom+Function  
  ----- ------------  ---------------      ----- ------------  ---------------
    76      0.568309   9 O  py               80      0.370589   9 O  py        
    42     -0.234985   5 C  s               114      0.218648  13 O  s         
   117      0.190920  13 O  pz              113      0.182565  13 O  pz        
   107      0.167859  12 C  py               40      0.158516   5 C  py        

 Vector   46  Occ=2.000000D+00  E=-2.754855D-01
              MO Center=  4.0D-01, -1.4D+00, -5.7D-02, r^2= 4.0D+00
   Bfn.  Coefficient  Atom+Function         Bfn.  Coefficient  Atom+Function  
  ----- ------------  ---------------      ----- ------------  ---------------
    50     -0.326301   6 C  pz               32      0.296930   4 C  pz        
    54     -0.237343   6 C  pz               14      0.215382   2 C  pz        
    36      0.209916   4 C  pz                5     -0.204759   1 C  pz        
    68      0.204341   8 O  pz               72      0.150549   8 O  pz        

 Vector   47  Occ=2.000000D+00  E=-2.654797D-01
              MO Center=  7.7D-01, -1.3D+00, -1.0D-01, r^2= 3.7D+00
   Bfn.  Coefficient  Atom+Function         Bfn.  Coefficient  Atom+Function  
  ----- ------------  ---------------      ----- ------------  ---------------
    59     -0.308551   7 C  pz               23      0.299628   3 C  pz        
    14     -0.248539   2 C  pz                5      0.236728   1 C  pz        
    27      0.216363   3 C  pz               18     -0.187869   2 C  pz        
   113      0.182431  13 O  pz               63     -0.180619   7 C  pz        
     9      0.170342   1 C  pz        

 Vector   48  Occ=0.000000D+00  E=-6.008789D-02
              MO Center= -4.1D-01, -1.1D+00, -5.0D-02, r^2= 5.0D+00
   Bfn.  Coefficient  Atom+Function         Bfn.  Coefficient  Atom+Function  
  ----- ------------  ---------------      ----- ------------  ---------------
    36      0.321426   4 C  pz               95      0.312402  11 C  pz        
    54      0.288158   6 C  pz               32      0.274437   4 C  pz        
     9     -0.258693   1 C  pz               68     -0.259713   8 O  pz        
    72     -0.253760   8 O  pz               99      0.240278  11 C  pz        
    50      0.227701   6 C  pz               59     -0.227454   7 C  pz        

 Vector   49  Occ=0.000000D+00  E=-1.950849D-02
              MO Center=  8.0D-01, -1.1D+00, -3.6D-02, r^2= 4.4D+00
   Bfn.  Coefficient  Atom+Function         Bfn.  Coefficient  Atom+Function  
  ----- ------------  ---------------      ----- ------------  ---------------
    18      0.395439   2 C  pz                9      0.384807   1 C  pz        
    27     -0.368053   3 C  pz               63     -0.343244   7 C  pz        
    59     -0.322246   7 C  pz               14      0.302190   2 C  pz        
     5      0.294964   1 C  pz               23     -0.278393   3 C  pz        
   105      0.174029  12 C  s                62     -0.163781   7 C  py        

 Vector   50  Occ=0.000000D+00  E=-8.638074D-03
              MO Center=  6.5D-01,  1.7D+00,  3.9D-01, r^2= 3.3D+00
   Bfn.  Coefficient  Atom+Function         Bfn.  Coefficient  Atom+Function  
  ----- ------------  ---------------      ----- ------------  ---------------
   102      0.544836  12 C  px              106      0.471353  12 C  px        
    79     -0.388487   9 O  px               75     -0.383193   9 O  px        
   129      0.308964  19 H  s               133     -0.304293  21 H  s         
   111     -0.222584  13 O  px               61     -0.202489   7 C  px        
    15      0.198023   2 C  s                51     -0.186210   6 C  s         

 Vector   51  Occ=0.000000D+00  E= 4.330082D-02
              MO Center= -3.4D-01, -1.1D+00, -4.2D-02, r^2= 5.7D+00
   Bfn.  Coefficient  Atom+Function         Bfn.  Coefficient  Atom+Function  
  ----- ------------  ---------------      ----- ------------  ---------------
    36      0.446389   4 C  pz               95     -0.435070  11 C  pz        
    99     -0.424671  11 C  pz               27     -0.334683   3 C  pz        
    18     -0.304114   2 C  pz               54      0.303809   6 C  pz        
    32      0.283912   4 C  pz               72      0.277058   8 O  pz        
    68      0.250422   8 O  pz               50      0.243065   6 C  pz        

 Vector   52  Occ=0.000000D+00  E= 6.398872D-02
              MO Center= -2.6D+00,  8.6D-01, -3.5D-01, r^2= 4.9D+00
   Bfn.  Coefficient  Atom+Function         Bfn.  Coefficient  Atom+Function  
  ----- ------------  ---------------      ----- ------------  ---------------
   119      1.358887  14 H  s                87     -0.787716  10 O  s         
    96      0.462625  11 C  s                88      0.456713  10 O  px        
    52      0.438315   6 C  px               60     -0.388549   7 C  s         
    42     -0.336178   5 C  s               129      0.317164  19 H  s         
    51     -0.286149   6 C  s                84      0.285712  10 O  px        

 Vector   53  Occ=0.000000D+00  E= 8.491984D-02
              MO Center=  1.4D+00, -1.5D+00, -1.0D-01, r^2= 9.6D+00
   Bfn.  Coefficient  Atom+Function         Bfn.  Coefficient  Atom+Function  
  ----- ------------  ---------------      ----- ------------  ---------------
   127      0.990276  18 H  s               123      0.853148  16 H  s         
    33     -0.790100   4 C  s               125      0.789740  17 H  s         
    24     -0.672255   3 C  s                15     -0.555650   2 C  s         
   121      0.537142  15 H  s                 6     -0.477436   1 C  s         
    34     -0.394342   4 C  px               42      0.389481   5 C  s         

 Vector   54  Occ=0.000000D+00  E= 1.103236D-01
              MO Center=  6.4D-01,  3.0D+00, -3.6D-01, r^2= 6.4D+00
   Bfn.  Coefficient  Atom+Function         Bfn.  Coefficient  Atom+Function  
  ----- ------------  ---------------      ----- ------------  ---------------
    42      2.151102   5 C  s               133     -1.203152  21 H  s         
   131     -0.900961  20 H  s               129     -0.881022  19 H  s         
   105     -0.749720  12 C  s               114      0.455717  13 O  s         
   123     -0.429663  16 H  s               119      0.329370  14 H  s         
    16      0.326930   2 C  px               44      0.302061   5 C  py        

 Vector   55  Occ=0.000000D+00  E= 1.316119D-01
              MO Center=  9.7D-01, -7.1D-01,  2.2D-02, r^2= 1.3D+01
   Bfn.  Coefficient  Atom+Function         Bfn.  Coefficient  Atom+Function  
  ----- ------------  ---------------      ----- ------------  ---------------
   125      1.210326  17 H  s                24     -0.982638   3 C  s         
   123     -0.888625  16 H  s               131      0.676890  20 H  s         
    45     -0.588229   5 C  pz              133     -0.560037  21 H  s         
   121      0.550421  15 H  s                26      0.546153   3 C  py        
    15      0.534372   2 C  s               114     -0.474072  13 O  s         

 Vector   56  Occ=0.000000D+00  E= 1.389504D-01
              MO Center=  7.3D-01, -3.0D-01, -1.8D-01, r^2= 1.2D+01
   Bfn.  Coefficient  Atom+Function         Bfn.  Coefficient  Atom+Function  
  ----- ------------  ---------------      ----- ------------  ---------------
   123     -0.968377  16 H  s               121      0.941457  15 H  s         
   129      0.769460  19 H  s               127     -0.749516  18 H  s         
    33      0.737144   4 C  s                24     -0.684748   3 C  s         
     6     -0.664277   1 C  s                15      0.648945   2 C  s         
     7      0.566429   1 C  px               45      0.509384   5 C  pz        

 Vector   57  Occ=0.000000D+00  E= 1.511807D-01
              MO Center=  4.2D-01, -7.0D-01,  2.7D-03, r^2= 7.5D+00
   Bfn.  Coefficient  Atom+Function         Bfn.  Coefficient  Atom+Function  
  ----- ------------  ---------------      ----- ------------  ---------------
   105      0.833965  12 C  s               131     -0.616371  20 H  s         
    33      0.540047   4 C  s                54      0.525758   6 C  pz        
   127     -0.516613  18 H  s                44      0.482346   5 C  py        
     9     -0.476761   1 C  pz               27      0.417205   3 C  pz        
   121      0.395518  15 H  s                36     -0.383974   4 C  pz        

 Vector   58  Occ=0.000000D+00  E= 1.598182D-01
              MO Center=  7.9D-01,  6.8D-01,  1.7D-01, r^2= 1.4D+01
   Bfn.  Coefficient  Atom+Function         Bfn.  Coefficient  Atom+Function  
  ----- ------------  ---------------      ----- ------------  ---------------
   131      1.285994  20 H  s                 6     -0.927911   1 C  s         
   127     -0.891840  18 H  s               121      0.826067  15 H  s         
    45     -0.722491   5 C  pz               15     -0.715445   2 C  s         
   123      0.700500  16 H  s                33      0.627311   4 C  s         
    96      0.555457  11 C  s                44     -0.524951   5 C  py        

 Vector   59  Occ=0.000000D+00  E= 1.675017D-01
              MO Center=  1.3D+00,  4.9D-01, -3.0D-01, r^2= 1.3D+01
   Bfn.  Coefficient  Atom+Function         Bfn.  Coefficient  Atom+Function  
  ----- ------------  ---------------      ----- ------------  ---------------
   127      1.203063  18 H  s               129      1.066070  19 H  s         
    16      0.923937   2 C  px               43      0.898096   5 C  px        
   123     -0.865262  16 H  s               125     -0.839368  17 H  s         
   133     -0.842457  21 H  s                34     -0.829437   4 C  px        
    33     -0.768932   4 C  s                62     -0.613598   7 C  py        

 Vector   60  Occ=0.000000D+00  E= 1.751805D-01
              MO Center=  9.6D-01,  1.5D+00, -4.4D-01, r^2= 1.2D+01
   Bfn.  Coefficient  Atom+Function         Bfn.  Coefficient  Atom+Function  
  ----- ------------  ---------------      ----- ------------  ---------------
   133      1.195197  21 H  s               129     -1.110525  19 H  s         
    43     -1.044591   5 C  px              123     -0.903566  16 H  s         
   127      0.792088  18 H  s               125     -0.709735  17 H  s         
    16      0.685062   2 C  px               34     -0.603710   4 C  px        
    26     -0.582806   3 C  py               62     -0.562501   7 C  py        

 Vector   61  Occ=0.000000D+00  E= 1.858463D-01
              MO Center=  1.8D-01, -1.2D+00,  2.6D-01, r^2= 1.1D+01
   Bfn.  Coefficient  Atom+Function         Bfn.  Coefficient  Atom+Function  
  ----- ------------  ---------------      ----- ------------  ---------------
   121      1.337891  15 H  s               105      1.082638  12 C  s         
   125     -1.058659  17 H  s                15     -0.916938   2 C  s         
    24      0.920884   3 C  s                 8      0.860126   1 C  py        
    60      0.857635   7 C  s                26     -0.731381   3 C  py        
    35      0.685673   4 C  py               52     -0.621988   6 C  px        

 Vector   62  Occ=0.000000D+00  E= 2.179200D-01
              MO Center=  1.6D-01,  6.0D-01, -1.1D-01, r^2= 7.3D+00
   Bfn.  Coefficient  Atom+Function         Bfn.  Coefficient  Atom+Function  
  ----- ------------  ---------------      ----- ------------  ---------------
   105      1.824846  12 C  s                96      1.368907  11 C  s         
    15      0.853094   2 C  s                 6      0.809657   1 C  s         
    60     -0.766464   7 C  s                52      0.665149   6 C  px        
    44      0.602332   5 C  py               24     -0.562635   3 C  s         
   121     -0.535384  15 H  s                78     -0.528567   9 O  s         

 Vector   63  Occ=0.000000D+00  E= 2.342583D-01
              MO Center= -4.8D-01, -3.3D-01, -1.4D-01, r^2= 7.2D+00
   Bfn.  Coefficient  Atom+Function         Bfn.  Coefficient  Atom+Function  
  ----- ------------  ---------------      ----- ------------  ---------------
    96      1.988984  11 C  s                33     -1.231920   4 C  s         
    60      1.170335   7 C  s                51     -1.113818   6 C  s         
    24      0.892290   3 C  s               105     -0.887007  12 C  s         
    69     -0.810869   8 O  s                 6      0.784221   1 C  s         
    42      0.676834   5 C  s                17     -0.659337   2 C  py        

 Vector   64  Occ=0.000000D+00  E= 2.429189D-01
              MO Center=  2.3D-01,  1.1D+00, -1.0D-01, r^2= 8.4D+00
   Bfn.  Coefficient  Atom+Function         Bfn.  Coefficient  Atom+Function  
  ----- ------------  ---------------      ----- ------------  ---------------
    60     -1.710200   7 C  s                42      1.590109   5 C  s         
   107     -1.329760  12 C  py               44     -1.250912   5 C  py        
   105     -1.020653  12 C  s                16     -0.779078   2 C  px        
    26     -0.642152   3 C  py               33      0.614356   4 C  s         
    51      0.590660   6 C  s               125     -0.589911  17 H  s         

 Vector   65  Occ=0.000000D+00  E= 2.614734D-01
              MO Center=  4.6D-02,  7.9D-01, -3.9D-02, r^2= 6.8D+00
   Bfn.  Coefficient  Atom+Function         Bfn.  Coefficient  Atom+Function  
  ----- ------------  ---------------      ----- ------------  ---------------
   107      1.361489  12 C  py               42     -1.226738   5 C  s         
    60     -1.042303   7 C  s                44      0.959365   5 C  py        
     6      0.865279   1 C  s                62      0.761275   7 C  py        
    16     -0.702663   2 C  px               53      0.679389   6 C  py        
   123      0.630885  16 H  s                78      0.601962   9 O  s         

 Vector   66  Occ=0.000000D+00  E= 2.845666D-01
              MO Center= -1.4D-01, -1.4D+00,  3.3D-02, r^2= 7.3D+00
   Bfn.  Coefficient  Atom+Function         Bfn.  Coefficient  Atom+Function  
  ----- ------------  ---------------      ----- ------------  ---------------
    33      2.127020   4 C  s                 6     -1.513629   1 C  s         
    96      1.520826  11 C  s                25     -1.447178   3 C  px        
    17      1.117501   2 C  py               69     -1.095231   8 O  s         
    34     -1.008730   4 C  px               97     -0.955631  11 C  px        
    51      0.767286   6 C  s                 7     -0.721285   1 C  px        

 Vector   67  Occ=0.000000D+00  E= 3.169578D-01
              MO Center=  9.3D-01, -1.5D+00,  5.4D-02, r^2= 6.5D+00
   Bfn.  Coefficient  Atom+Function         Bfn.  Coefficient  Atom+Function  
  ----- ------------  ---------------      ----- ------------  ---------------
    24      2.766966   3 C  s                 7     -1.536439   1 C  px        
    35      1.446005   4 C  py               15     -1.379223   2 C  s         
    60     -1.318294   7 C  s                53      1.144945   6 C  py        
    17      1.105010   2 C  py               26      1.102228   3 C  py        
    34      0.990915   4 C  px                8      0.950581   1 C  py        

 Vector   68  Occ=0.000000D+00  E= 3.200473D-01
              MO Center=  2.3D-01, -1.2D+00, -9.1D-03, r^2= 6.5D+00
   Bfn.  Coefficient  Atom+Function         Bfn.  Coefficient  Atom+Function  
  ----- ------------  ---------------      ----- ------------  ---------------
    15      2.232601   2 C  s                 8      1.710912   1 C  py        
    53      1.583107   6 C  py               51     -1.544863   6 C  s         
     6      1.469754   1 C  s                97     -1.367026  11 C  px        
    60     -1.218732   7 C  s                16     -1.131966   2 C  px        
    35     -1.112160   4 C  py               69     -1.036585   8 O  s         

 Vector   69  Occ=0.000000D+00  E= 3.464667D-01
              MO Center=  5.3D-01,  1.3D+00,  3.9D-01, r^2= 5.7D+00
   Bfn.  Coefficient  Atom+Function         Bfn.  Coefficient  Atom+Function  
  ----- ------------  ---------------      ----- ------------  ---------------
   108      2.470464  12 C  pz               78     -1.795860   9 O  s         
    60      1.522570   7 C  s                51      1.352531   6 C  s         
     8     -0.873032   1 C  py              116      0.798923  13 O  py        
     6     -0.776872   1 C  s                53     -0.766207   6 C  py        
    45     -0.753428   5 C  pz               17     -0.716275   2 C  py        

 Vector   70  Occ=0.000000D+00  E= 3.622913D-01
              MO Center= -3.3D-01, -4.7D-01, -1.3D-01, r^2= 5.8D+00
   Bfn.  Coefficient  Atom+Function         Bfn.  Coefficient  Atom+Function  
  ----- ------------  ---------------      ----- ------------  ---------------
    51      2.686326   6 C  s                97     -1.887066  11 C  px        
    33     -1.590697   4 C  s                17     -1.445141   2 C  py        
    52     -1.449527   6 C  px               96     -1.236043  11 C  s         
    61      1.087516   7 C  px               35     -0.758965   4 C  py        
    98      0.748087  11 C  py               53      0.738512   6 C  py        

 Vector   71  Occ=0.000000D+00  E= 3.936242D-01
              MO Center= -1.5D-02, -1.1D+00, -5.0D-02, r^2= 6.6D+00
   Bfn.  Coefficient  Atom+Function         Bfn.  Coefficient  Atom+Function  
  ----- ------------  ---------------      ----- ------------  ---------------
    51      2.380297   6 C  s                 6      2.278162   1 C  s         
    60     -2.163134   7 C  s                25      2.011603   3 C  px        
    69     -1.466379   8 O  s                97     -1.387930  11 C  px        
    98     -1.376719  11 C  py               53      1.303869   6 C  py        
    61      1.271663   7 C  px               35      1.133294   4 C  py        

 Vector   72  Occ=0.000000D+00  E= 4.914295D-01
              MO Center= -8.4D-02, -9.6D-01, -2.0D-01, r^2= 5.1D+00
   Bfn.  Coefficient  Atom+Function         Bfn.  Coefficient  Atom+Function  
  ----- ------------  ---------------      ----- ------------  ---------------
     6      1.931813   1 C  s                15     -1.811850   2 C  s         
    33      1.599166   4 C  s                53      1.594399   6 C  py        
    24     -1.523630   3 C  s                62     -1.243318   7 C  py        
     8      1.187981   1 C  py               16      1.144835   2 C  px        
    34     -1.148472   4 C  px               26     -1.106086   3 C  py        

 Vector   73  Occ=0.000000D+00  E= 4.985324D-01
              MO Center= -1.5D-01,  1.7D-01,  8.5D-02, r^2= 6.3D+00
   Bfn.  Coefficient  Atom+Function         Bfn.  Coefficient  Atom+Function  
  ----- ------------  ---------------      ----- ------------  ---------------
    53      2.107242   6 C  py               61      2.092888   7 C  px        
     8      1.651151   1 C  py               16      1.469980   2 C  px        
     6      1.449480   1 C  s                34     -1.397472   4 C  px        
    15     -1.321074   2 C  s                24     -1.287067   3 C  s         
    25     -1.119468   3 C  px               33      1.084322   4 C  s         

 Vector   74  Occ=0.000000D+00  E= 5.083853D-01
              MO Center=  7.8D-01, -7.0D-01, -6.5D-03, r^2= 6.6D+00
   Bfn.  Coefficient  Atom+Function         Bfn.  Coefficient  Atom+Function  
  ----- ------------  ---------------      ----- ------------  ---------------
     6      2.483832   1 C  s                53      2.326255   6 C  py        
    15     -2.259148   2 C  s                24     -1.982216   3 C  s         
    33      1.980396   4 C  s                34     -1.836541   4 C  px        
     8      1.766982   1 C  py               16      1.676203   2 C  px        
    61      1.667685   7 C  px               26     -1.595608   3 C  py        


------------------------------------------------------------
EAF file 0: "./b3lyp_scf.aoints.0" size=268959744 bytes
------------------------------------------------------------
               write      read    awrite     aread      wait
               -----      ----    ------     -----      ----
     calls:      513         9         0      4608      4608
   data(b): 2.69e+08  4.72e+06  0.00e+00  2.42e+09
   time(s): 0.00e+00  0.00e+00  0.00e+00  0.00e+00  0.00e+00
rate(mb/s): 0.00e+00  0.00e+00
------------------------------------------------------------


 center of mass
 --------------
 x =  -0.04314512 y =  -0.02902200 z =   0.01110773

 moments of inertia (a.u.)
 ------------------
        2352.901860332041          -0.000000000000          -0.000000000001
          -0.000000000000        1663.594209381265          -0.000000000000
          -0.000000000001          -0.000000000000        3584.992328006921

     Multipole analysis of the density
     ---------------------------------

     L   x y z        total         alpha         beta         nuclear
     -   - - -        -----         -----         ----         -------
     0   0 0 0      0.000000    -47.000000    -47.000000     94.000000

     1   1 0 0      0.607608      0.303804      0.303804      0.000000
     1   0 1 0      0.162229      0.081114      0.081114     -0.000000
     1   0 0 1     -0.710799     -0.355400     -0.355400     -0.000000

     2   2 0 0    -51.841739   -415.092864   -415.092864    778.343988
     2   1 1 0     -6.237922      2.453179      2.453179    -11.144281
     2   1 0 1     -0.303289      1.445313      1.445313     -3.193915
     2   0 2 0    -45.777175   -623.388163   -623.388163   1200.999151
     2   0 1 1     -2.476393      4.594201      4.594201    -11.664794
     2   0 0 2    -60.289231    -86.697094    -86.697094    113.104957


 Parallel integral file used     513 records with       0 large values



                            NWChem DFT Gradient Module
                            --------------------------



  charge          =   0.00
  wavefunction    = closed shell



                         DFT ENERGY GRADIENTS

    atom               coordinates                        gradient
                 x          y          z           x          y          z
   1 C      -0.650139  -4.295548   0.500076   -0.004813   0.008975  -0.001550
   2 C       3.615743  -1.502803  -0.831483    0.000548  -0.000512  -0.000833
   3 C       1.731667  -5.439695   0.483952    0.006635   0.004270  -0.002353
   4 C       3.861124  -4.044614  -0.187774   -0.004476   0.000959   0.000818
   5 C       1.000090   6.479256  -0.368133    0.000381  -0.005601  -0.007618
   6 C      -0.935130  -1.736564  -0.148713    0.008240   0.002403  -0.001506
   7 C       1.232212  -0.353329  -0.782527   -0.012601   0.022836   0.010256
   8 O      -5.422301  -1.905059   0.511355    0.026446   0.022613  -0.010604
   9 O       1.428918   3.224292   2.793254   -0.000293   0.014259  -0.000177
  10 O      -3.773641   1.688953  -0.891303    0.008233  -0.023152   0.004973
  11 C      -3.550662  -0.720157  -0.119767   -0.039060   0.010844   0.001307
  12 C       1.214080   3.813192   0.566682    0.003594  -0.039553   0.003137
  13 O       1.144887   2.187041  -1.494997   -0.001437   0.003269  -0.011782
  14 H      -5.592902   2.010836  -0.747421    0.004019  -0.012329   0.003635
  15 H      -2.293337  -5.420800   1.020847   -0.000443  -0.006181   0.001843
  16 H       5.277622  -0.416879  -1.355515    0.003844  -0.001817  -0.000158
  17 H       1.918250  -7.421507   0.994469    0.000812  -0.001956   0.000451
  18 H       5.711706  -4.936535  -0.205173    0.001091  -0.001264   0.000346
  19 H      -0.777768   6.724881  -1.390063   -0.002007   0.000648   0.004279
  20 H       1.012005   7.772571   1.245956   -0.000701   0.002108   0.001019
  21 H       2.607604   6.927176  -1.583443    0.001989  -0.000820   0.004518

                 ----------------------------------------
                 |  Time  |  1-e(secs)   |  2-e(secs)   |
                 ----------------------------------------
                 |  CPU   |       0.05   |      11.48   |
                 ----------------------------------------
                 |  WALL  |       0.05   |      11.52   |
                 ----------------------------------------

@ Step       Energy      Delta E   Gmax     Grms     Xrms     Xmax   Walltime
@ ---- ---------------- -------- -------- -------- -------- -------- --------
@    0    -648.48659096  0.0D+00  0.03735  0.00694  0.00000  0.00000     73.9
                                                                    



                                Z-matrix (autoz)
                                -------- 

 Units are Angstrom for bonds and degrees for angles

      Type          Name      I     J     K     L     M      Value     Gradient
      ----------- --------  ----- ----- ----- ----- ----- ---------- ----------
    1 Stretch                  1     3                       1.39830    0.00356
    2 Stretch                  1     6                       1.40512   -0.00159
    3 Stretch                  1    15                       1.08932    0.00420
    4 Stretch                  2     4                       1.39359   -0.00330
    5 Stretch                  2     7                       1.40056    0.00421
    6 Stretch                  2    16                       1.08651    0.00219
    7 Stretch                  3     4                       1.39326   -0.00572
    8 Stretch                  3    17                       1.08746    0.00207
    9 Stretch                  4    18                       1.08713    0.00153
   10 Stretch                  5    12                       1.49932   -0.00415
   11 Stretch                  5    19                       1.09291   -0.00031
   12 Stretch                  5    20                       1.09453    0.00211
   13 Stretch                  5    21                       1.09243   -0.00129
   14 Stretch                  6     7                       1.40131   -0.00631
   15 Stretch                  6    11                       1.48499   -0.00040
   16 Stretch                  7    13                       1.39694   -0.02299
   17 Stretch                  8    11                       1.21887   -0.03603
   18 Stretch                  9    12                       1.22406   -0.00383
   19 Stretch                 10    11                       1.34382   -0.03735
   20 Stretch                 10    14                       0.98062   -0.00580
   21 Stretch                 12    13                       1.39000   -0.01379
   22 Bend                     1     3     4               120.07641    0.00097
   23 Bend                     1     3    17               119.86100   -0.00014
   24 Bend                     1     6     7               118.29708   -0.00000
   25 Bend                     1     6    11               116.52421    0.00202
   26 Bend                     2     4     3               119.89551    0.00017
   27 Bend                     2     4    18               120.05964    0.00032
   28 Bend                     2     7     6               120.97359    0.00063
   29 Bend                     2     7    13               116.27901   -0.00140
   30 Bend                     3     1     6               120.83337   -0.00129
   31 Bend                     3     1    15               118.97138   -0.00203
   32 Bend                     3     4    18               120.04468   -0.00049
   33 Bend                     4     2     7               119.90586   -0.00049
   34 Bend                     4     2    16               119.83089   -0.00174
   35 Bend                     4     3    17               120.06254   -0.00083
   36 Bend                     5    12     9               124.34470   -0.00615
   37 Bend                     5    12    13               108.75879   -0.00451
   38 Bend                     6     1    15               120.19508    0.00332
   39 Bend                     6     7    13               122.69678    0.00078
   40 Bend                     6    11     8               125.01994    0.00426
   41 Bend                     6    11    10               114.98063   -0.00241
   42 Bend                     7     2    16               120.26155    0.00223
   43 Bend                     7     6    11               125.17733   -0.00202
   44 Bend                     7    13    12               112.52262   -0.02108
   45 Bend                     8    11    10               119.99502   -0.00186
   46 Bend                     9    12    13               126.89496    0.01066
   47 Bend                    11    10    14               103.14379   -0.01192
   48 Bend                    12     5    19               109.88800    0.00006
   49 Bend                    12     5    20               109.29726    0.00039
   50 Bend                    12     5    21               109.85201   -0.00128
   51 Bend                    19     5    20               108.46529   -0.00111
   52 Bend                    19     5    21               110.68393    0.00236
   53 Bend                    20     5    21               108.61756   -0.00044
   54 Torsion                  1     3     4     2           0.32538    0.00004
   55 Torsion                  1     3     4    18        -179.82507   -0.00003
   56 Torsion                  1     6     7     2           1.58226    0.00034
   57 Torsion                  1     6     7    13         178.89757    0.00059
   58 Torsion                  1     6    11     8           2.95360    0.00035
   59 Torsion                  1     6    11    10        -176.27860    0.00087
   60 Torsion                  2     4     3    17        -179.75449   -0.00000
   61 Torsion                  2     7     6    11        -177.97329    0.00060
   62 Torsion                  2     7    13    12         -96.24341    0.00131
   63 Torsion                  3     1     6     7          -0.75741   -0.00020
   64 Torsion                  3     1     6    11         178.83657   -0.00045
   65 Torsion                  3     4     2     7           0.48892    0.00008
   66 Torsion                  3     4     2    16        -179.98290   -0.00019
   67 Torsion                  4     2     7     6          -1.46663   -0.00033
   68 Torsion                  4     2     7    13        -178.94705   -0.00062
   69 Torsion                  4     3     1     6          -0.18514   -0.00004
   70 Torsion                  4     3     1    15         179.67085   -0.00016
[...]
   82 Torsion                  9    12     5    19        -112.41369   -0.00001
   83 Torsion                  9    12     5    20           7.78334    0.00000
   84 Torsion                  9    12     5    21         129.61413   -0.00001
   85 Torsion                 11     6     1    15          -0.94490    0.00000
   86 Torsion                 11     6     7    13          -2.09226   -0.00000
   87 Torsion                 13     7     2    16           2.80484   -0.00001
   88 Torsion                 13    12     5    19          68.09907    0.00000
   89 Torsion                 13    12     5    20        -171.70390    0.00001
   90 Torsion                 13    12     5    21         -49.87312    0.00000
   91 Torsion                 15     1     3    17          -0.08248   -0.00000
   92 Torsion                 16     2     4    18           0.17393    0.00002
   93 Torsion                 17     3     4    18          -0.04234   -0.00001



                         Geometry "geometry" -> "geometry"
                         ---------------------------------

 Output coordinates in angstroms (scale by  1.889725989 to convert to a.u.)

  No.       Tag          Charge          X              Y              Z
 ---- ---------------- ---------- -------------- -------------- --------------
    1 C                    6.0000    -0.32748164    -2.30960526     0.20404436
    2 C                    6.0000     1.99179215    -0.87603704    -0.36564894
    3 C                    6.0000     0.89712358    -2.97057002     0.15886311
    4 C                    6.0000     2.06281920    -2.25054780    -0.13242801
    5 C                    6.0000     0.44351262     3.47791537    -0.27670038
    6 C                    6.0000    -0.42575532    -0.92414479    -0.03839206
    7 C                    6.0000     0.76181977    -0.21765657    -0.31661733
    8 O                    8.0000    -2.80234754    -1.00918311     0.31750947
    9 O                    8.0000     0.40433089     1.84629042     1.54399131
   10 O                    8.0000    -1.89721110     0.97521694    -0.32259803
   11 C                    6.0000    -1.79134790    -0.35902459     0.01484900
   12 C                    6.0000     0.52568654     2.12444734     0.35723358
   13 O                    8.0000     0.78496627     1.15640873    -0.62959681
   14 H                    1.0000    -2.83837344     1.24383662    -0.24403900
   15 H                    1.0000    -1.24359550    -2.84482593     0.42341895
   16 H                    1.0000     2.87768509    -0.29454787    -0.59017196
   17 H                    1.0000     0.94413886    -4.03740702     0.34621214
   18 H                    1.0000     3.02278994    -2.75417441    -0.17237725
   19 H                    1.0000    -0.45276575     3.52094565    -0.90425001
   20 H                    1.0000     0.38999496     4.24376131     0.49714685
   21 H                    1.0000     1.30782641     3.65313093    -0.92336475

      Atomic Mass 
      ----------- 

      C                 12.000000
      O                 15.994910
      H                  1.007825


 Effective nuclear repulsion energy (a.u.)     778.6071303213

            Nuclear Dipole moment (a.u.) 
            ----------------------------
        X                 Y               Z
 ---------------- ---------------- ----------------
     1.4260302594     1.2268912053     6.3083636167


                Final and change from initial internal coordinates
                --------------------------------------------------



                                Z-matrix (autoz)
                                -------- 

 Units are Angstrom for bonds and degrees for angles

      Type          Name      I     J     K     L     M      Value       Change
      ----------- --------  ----- ----- ----- ----- ----- ---------- ----------
    1 Stretch                  1     3                       1.39233   -0.00598
    2 Stretch                  1     6                       1.40994    0.00482
    3 Stretch                  1    15                       1.08344   -0.00588
    4 Stretch                  2     4                       1.39596    0.00237
    5 Stretch                  2     7                       1.39596   -0.00460
    6 Stretch                  2    16                       1.08321   -0.00330
    7 Stretch                  3     4                       1.40076    0.00750
    8 Stretch                  3    17                       1.08418   -0.00328
    9 Stretch                  4    18                       1.08479   -0.00234
   10 Stretch                  5    12                       1.49683   -0.00249
   11 Stretch                  5    19                       1.09498    0.00207
   12 Stretch                  5    20                       1.09006   -0.00447
   13 Stretch                  5    21                       1.09358    0.00115
   14 Stretch                  6     7                       1.40956    0.00825
   15 Stretch                  6    11                       1.47886   -0.00613
   16 Stretch                  7    13                       1.40945    0.01251
   17 Stretch                  8    11                       1.23953    0.02066
   18 Stretch                  9    12                       1.22495    0.00089
   19 Stretch                 10    11                       1.38032    0.03650
   20 Stretch                 10    14                       0.98189    0.00127
   21 Stretch                 12    13                       1.40647    0.01647
   22 Bend                     1     3     4               119.64819   -0.42822
   23 Bend                     1     3    17               119.97739    0.11639
   24 Bend                     1     6     7               117.88668   -0.41040
   25 Bend                     1     6    11               115.70057   -0.82364
   26 Bend                     2     4     3               119.90233    0.00683
   27 Bend                     2     4    18               119.73558   -0.32406
   28 Bend                     2     7     6               120.85579   -0.11780
   29 Bend                     2     7    13               115.94599   -0.33302
   30 Bend                     3     1     6               121.48005    0.64668
   31 Bend                     3     1    15               121.04824    2.07685
   32 Bend                     3     4    18               120.36115    0.31647
   33 Bend                     4     2     7               120.22170    0.31583
   34 Bend                     4     2    16               121.43876    1.60787
   35 Bend                     4     3    17               120.37424    0.31170
   36 Bend                     5    12     9               127.60423    3.25953
   37 Bend                     5    12    13               109.59196    0.83316
   38 Bend                     6     1    15               117.47116   -2.72392
   39 Bend                     6     7    13               123.11317    0.41639
   40 Bend                     6    11     8               124.16065   -0.85929
   41 Bend                     6    11    10               115.55609    0.57547
   42 Bend                     7     2    16               118.33934   -1.92221
   43 Bend                     7     6    11               126.41001    1.23268
   44 Bend                     7    13    12               120.80813    8.28552
   45 Bend                     8    11    10               120.27498    0.27996
   46 Bend                     9    12    13               122.80178   -4.09318
   47 Bend                    11    10    14               108.56588    5.42209
   48 Bend                    12     5    19               108.85621   -1.03180
   49 Bend                    12     5    20               109.71354    0.41629
   50 Bend                    12     5    21               110.60513    0.75312
   51 Bend                    19     5    20               109.81997    1.35467
   52 Bend                    19     5    21               107.56185   -3.12209
   53 Bend                    20     5    21               110.24458    1.62702
   54 Torsion                  1     3     4     2           0.46368    0.13830
   55 Torsion                  1     3     4    18        -179.88888   -0.06382
   56 Torsion                  1     6     7     2           0.76715   -0.81510
   57 Torsion                  1     6     7    13         177.27614   -1.62143
   58 Torsion                  1     6    11     8           3.69173    0.73814
   59 Torsion                  1     6    11    10        -175.26075    1.01785
   60 Torsion                  2     4     3    17        -179.68978    0.06472
   61 Torsion                  2     7     6    11        -178.60124   -0.62796
   62 Torsion                  2     7    13    12        -111.86294  -15.61953
   63 Torsion                  3     1     6     7          -0.64682    0.11058
   64 Torsion                  3     1     6    11         178.78906   -0.04751
   65 Torsion                  3     4     2     7          -0.34290   -0.83182
   66 Torsion                  3     4     2    16         179.82359   -0.19352
   67 Torsion                  4     2     7     6          -0.28531    1.18132
   68 Torsion                  4     2     7    13        -177.03377    1.91328
   69 Torsion                  4     3     1     6           0.04020    0.22534
   70 Torsion                  4     3     1    15         179.76468    0.09384
   71 Torsion                  5    12    13     7        -172.88329    4.70511
   72 Torsion                  6     1     3    17        -179.80696    0.29846
   73 Torsion                  6     7     2    16         179.55330    0.54606
   74 Torsion                  6     7    13    12          71.46970  -14.85400
   75 Torsion                  6    11    10    14        -179.41837    0.71870
   76 Torsion                  7     2     4    18        -179.99256   -0.63195
   77 Torsion                  7     6     1    15         179.61922    0.23085
   78 Torsion                  7     6    11     8        -176.92781    0.55597
   79 Torsion                  7     6    11    10           4.11970    0.83568
   80 Torsion                  7    13    12     9           7.60000    4.74800
   81 Torsion                  8    11    10    14           1.58529    0.99633
   82 Torsion                  9    12     5    19        -112.41369    8.13271
   83 Torsion                  9    12     5    20           7.78334    9.41323
   84 Torsion                  9    12     5    21         129.61413   12.16317
   85 Torsion                 11     6     1    15          -0.94490    0.07276
   86 Torsion                 11     6     7    13          -2.09226   -1.43428
   87 Torsion                 13     7     2    16           2.80484    1.27802
   88 Torsion                 13    12     5    19          68.09907    8.21889
   89 Torsion                 13    12     5    20        -171.70390    9.49941
   90 Torsion                 13    12     5    21         -49.87312   12.24935
   91 Torsion                 15     1     3    17          -0.08248    0.16696
   92 Torsion                 16     2     4    18           0.17393    0.00635
   93 Torsion                 17     3     4    18          -0.04234   -0.13740

 ==============================================================================
                                internuclear distances
 ------------------------------------------------------------------------------
       center one      |      center two      | atomic units |  angstroms
 ------------------------------------------------------------------------------
    3 C                |   1 C                |     2.63112  |     1.39233
    4 C                |   2 C                |     2.63799  |     1.39596
    4 C                |   3 C                |     2.64705  |     1.40076
    6 C                |   1 C                |     2.66440  |     1.40994
    7 C                |   2 C                |     2.63798  |     1.39596
    7 C                |   6 C                |     2.66369  |     1.40956
   11 C                |   6 C                |     2.79465  |     1.47886
   11 C                |   8 O                |     2.34237  |     1.23953
   11 C                |  10 O                |     2.60842  |     1.38032
   12 C                |   5 C                |     2.82860  |     1.49683
   12 C                |   9 O                |     2.31481  |     1.22495
   13 O                |   7 C                |     2.66347  |     1.40945
   13 O                |  12 C                |     2.65784  |     1.40647
   14 H                |  10 O                |     1.85551  |     0.98189
   15 H                |   1 C                |     2.04741  |     1.08344
   16 H                |   2 C                |     2.04697  |     1.08321
   17 H                |   3 C                |     2.04881  |     1.08418
   18 H                |   4 C                |     2.04996  |     1.08479
   19 H                |   5 C                |     2.06922  |     1.09498
   20 H                |   5 C                |     2.05991  |     1.09006
   21 H                |   5 C                |     2.06656  |     1.09358
 ------------------------------------------------------------------------------
                         number of included internuclear distances:         21
 ==============================================================================



 ==============================================================================
                                 internuclear angles
 ------------------------------------------------------------------------------
        center 1       |       center 2       |       center 3       |  degrees
 ------------------------------------------------------------------------------
    3 C                |   1 C                |   6 C                |   121.48
    3 C                |   1 C                |  15 H                |   121.05
    6 C                |   1 C                |  15 H                |   117.47
    4 C                |   2 C                |   7 C                |   120.22
    4 C                |   2 C                |  16 H                |   121.44
    7 C                |   2 C                |  16 H                |   118.34
    1 C                |   3 C                |   4 C                |   119.65
    1 C                |   3 C                |  17 H                |   119.98
    4 C                |   3 C                |  17 H                |   120.37
    2 C                |   4 C                |   3 C                |   119.90
    2 C                |   4 C                |  18 H                |   119.74
    3 C                |   4 C                |  18 H                |   120.36
   12 C                |   5 C                |  19 H                |   108.86
   12 C                |   5 C                |  20 H                |   109.71
   12 C                |   5 C                |  21 H                |   110.61
   19 H                |   5 C                |  20 H                |   109.82
   19 H                |   5 C                |  21 H                |   107.56
   20 H                |   5 C                |  21 H                |   110.24
    1 C                |   6 C                |   7 C                |   117.89
    1 C                |   6 C                |  11 C                |   115.70
    7 C                |   6 C                |  11 C                |   126.41
    2 C                |   7 C                |   6 C                |   120.86
    2 C                |   7 C                |  13 O                |   115.95
    6 C                |   7 C                |  13 O                |   123.11
   11 C                |  10 O                |  14 H                |   108.57
    6 C                |  11 C                |   8 O                |   124.16
    6 C                |  11 C                |  10 O                |   115.56
    8 O                |  11 C                |  10 O                |   120.27
    5 C                |  12 C                |   9 O                |   127.60
    5 C                |  12 C                |  13 O                |   109.59
    9 O                |  12 C                |  13 O                |   122.80
    7 C                |  13 O                |  12 C                |   120.81
 ------------------------------------------------------------------------------
                            number of included internuclear angles:         32
 ==============================================================================




 Task  times  cpu:     1623.6s     wall:     1640.4s
 Summary of allocated global arrays
-----------------------------------
  No active global arrays



                         GA Statistics for process    0
                         ------------------------------

       create   destroy   get      put      acc     scatter   gather  read&inc
calls: 4045     4045     1.04e+07 3.76e+05 5.73e+06    0        0     1.76e+05 
number of processes/call 1.00e+00 1.00e+00 1.00e+00 0.00e+00 0.00e+00
bytes total:             5.86e+09 4.99e+08 2.40e+09 0.00e+00 0.00e+00 1.41e+06
bytes remote:            0.00e+00 0.00e+00 0.00e+00 0.00e+00 0.00e+00 0.00e+00
Max memory consumed for GA by this process: 5518968 bytes
MA_summarize_allocated_blocks: starting scan ...
MA_summarize_allocated_blocks: scan completed: 0 heap blocks, 0 stack blocks
MA usage statistics:

	allocation statistics:
					      heap	     stack
					      ----	     -----
	current number of blocks	         0	         0
	maximum number of blocks	        23	        47
	current total bytes		         0	         0
	maximum total bytes		  15432912	  22519856
	maximum total K-bytes		     15433	     22520
	maximum total M-bytes		        16	        23


                                NWChem Input Module
                                -------------------





                                     CITATION
                                     --------
                Please cite the following reference when publishing
                           results obtained with NWChem:

                 M. Valiev, E.J. Bylaska, N. Govind, K. Kowalski,
              T.P. Straatsma, H.J.J. van Dam, D. Wang, J. Nieplocha,
                        E. Apra, T.L. Windus, W.A. de Jong
                 "NWChem: a comprehensive and scalable open-source
                  solution for large scale molecular simulations"
                      Comput. Phys. Commun. 181, 1477 (2010)
                           doi:10.1016/j.cpc.2010.04.018

                              AUTHORS & CONTRIBUTORS
                              ----------------------
          E. Apra, E. J. Bylaska, W. A. de Jong, N. Govind, K. Kowalski,
       T. P. Straatsma, M. Valiev, H. J. J. van Dam, D. Wang, T. L. Windus,
        J. Hammond, J. Autschbach, K. Bhaskaran-Nair, J. Brabec, K. Lopata,
     F. Aquino, S. Hirata, M. T. Hackler, J. Mullin, P. Nichols, R. Peverati,
    J. Pittner, Y. Zhao, P.-D. Fan, R. J. Harrison, M. Dupuis, D. Silverstein,
    D. M. A. Smith, J. Nieplocha, V. Tipparaju, M. Krishnan, B. E. Van Kuiken,
        A. Vazquez-Mayagoitia, L. Jensen, M. Swart, Q. Wu, T. Van Voorhis,
     A. A. Auer, M. Nooijen, L. D. Crosby, E. Brown, G. Cisneros, G. I. Fann,
     H. Fruchtl, J. Garza, K. Hirao, R. Kendall, J. A. Nichols, K. Tsemekhman,
      K. Wolinski, J. Anchell, D. Bernholdt, P. Borowski, T. Clark, D. Clerc,
      H. Dachsel, M. Deegan, K. Dyall, D. Elwood, E. Glendening, M. Gutowski,
      A. Hess, J. Jaffe, B. Johnson, J. Ju, R. Kobayashi, R. Kutteh, Z. Lin,
   R. Littlefield, X. Long, B. Meng, T. Nakajima, S. Niu, L. Pollack, M. Rosing,
   K. Glaesemann, G. Sandrone, M. Stave, H. Taylor, G. Thomas, J. H. van Lenthe,
                                A. Wong, Z. Zhang.

 Total times  cpu:     1623.7s     wall:     1640.5s
Finished!
Sun Jan 19 19:56:23 GMT 2014
